50
	Energy:     496.4689160
C         -8.56700       -8.52700      -21.44300
C         -7.28200       -9.20100      -20.95500
C         -6.16667       -9.14435      -22.13686
C         -6.21090      -10.15608      -23.09292
N         -5.05061       -8.30986      -22.51904
C         -4.44300       -9.03517      -23.43407
N         -5.11416      -10.07563      -23.84496
H         -6.88577       -8.59146      -20.11711
H         -7.48281      -10.22095      -20.56714
H         -6.95125      -10.92463      -23.24801
H         -3.51409       -8.79041      -23.83962
H         -4.75530      -10.63599      -24.63568
C         -8.25500       -3.32200      -24.85300
C         -6.99600       -4.16300      -25.06800
C         -6.38835       -4.41435      -23.78873
C         -5.95765       -5.57000      -23.38208
N         -6.20469       -3.44021      -22.82429
C         -5.80846       -4.12118      -21.64512
N         -5.44739       -5.49206      -22.10409
H         -7.26960       -5.13322      -25.53654
H         -6.32503       -3.62095      -25.76577
H         -6.43793       -2.44132      -22.90285
H         -5.83394       -6.46047      -23.97223
H         -5.23144       -3.37922      -21.07420
Co        -3.87731       -6.62657      -22.25614
O         -4.13977       -7.25176      -20.67537
O         -2.39217       -7.66606      -22.37281
O         -3.55475       -5.83730      -23.98860
N         -2.78811       -5.19304      -21.62973
O         -3.36951       -3.69704      -24.83490
O         -0.18502       -7.61912      -22.16642
O         -4.29536       -6.58233      -18.63542
C         -1.25775       -7.03743      -22.12655
C         -3.89235       -6.37597      -19.76141
C         -3.23906       -4.48915      -23.89931
C         -3.24155       -5.10440      -20.20256
C         -2.91425       -3.99373      -22.51980
C         -1.36648       -5.63835      -21.69976
H         -8.77913       -3.18218      -25.82138
H         -8.00013       -2.31851      -24.45732
H         -8.94167       -3.83549      -24.14564
H         -9.00471       -9.11237      -22.27844
H         -8.34334       -7.49745      -21.79534
H         -9.30132       -8.47457      -20.61237
H         -0.76713       -5.04611      -22.42414
H         -0.89717       -5.58556      -20.71082
H         -3.99669       -4.38024      -20.01264
H         -2.44690       -4.85737      -19.51770
H         -3.62684       -3.24502      -22.21226
H         -2.02847       -3.34063      -22.48228
