50
	Energy:     168.8362781
Co        -6.70577        1.12013      -10.23453
C         -1.68593        1.75917       -8.21962
C         -1.45893        1.87017       -9.72862
C         -2.76009        1.25593      -10.34598
C         -3.88004        0.86914       -9.69559
N         -2.97898        1.04049      -11.71395
C         -4.30524        0.48393      -11.90455
N         -4.90468        0.42999      -10.57265
H         -0.58174        1.25298      -10.01636
H         -1.31291        2.92002      -10.05889
H         -2.29878        1.23139      -12.46335
H         -4.04621        0.95333       -8.63480
H         -4.88475        1.14738      -12.57559
C         -6.86893       -0.92283       -6.03562
C         -6.51393       -1.50983       -7.40262
C         -7.46373       -1.50653       -8.57510
C         -8.34834       -2.48253       -8.68759
N         -7.44438       -0.69832       -9.78580
C         -8.37366       -1.35161      -10.69192
N         -8.95313       -2.42824       -9.94215
H         -6.12504       -2.54286       -7.26430
H         -5.63876       -0.91641       -7.73864
H         -8.52876       -3.26543       -7.96122
H         -7.84232       -1.73056      -11.59055
H         -9.64978       -3.09818      -10.29762
O         -6.38137        1.42833       -8.47176
O         -6.01452        2.73889      -10.63726
O         -7.18655        0.89988      -11.97392
N         -8.43562        2.01099       -9.98308
O         -9.00940        0.79441      -13.26743
O         -6.45573        4.90870      -10.76767
O         -7.41103        2.51554       -6.80363
C         -6.84533        3.77323      -10.54858
C         -7.48996        1.87683       -7.84060
C         -8.50926        1.09211      -12.19525
C         -8.78100        1.72239       -8.58761
H         -9.09446        0.66535       -8.49023
H         -9.61165        2.34819       -8.19161
C         -9.35893        1.48809      -11.01382
H        -10.13696        2.23046      -11.29720
H         -9.93570        0.60834      -10.66562
C         -8.24781        3.49146      -10.17312
H         -8.47691        4.07360       -9.25155
H         -8.88702        3.91757      -10.97748
H         -7.17836        0.12696       -6.08759
H         -5.99272       -0.99670       -5.35706
H         -7.70579       -1.50535       -5.59698
H         -1.82372        0.70295       -7.89867
H         -2.53135        2.39843       -7.88439
H         -0.78012        2.14050       -7.70339
