
                                        *****************
                                        * O   R   C   A *
                                        *****************

                                            #,                                       
                                            ###                                      
                                            ####                                     
                                            #####                                    
                                            ######                                   
                                           ########,                                 
                                     ,,################,,,,,                         
                               ,,#################################,,                 
                          ,,##########################################,,             
                       ,#########################################, ''#####,          
                    ,#############################################,,   '####,        
                  ,##################################################,,,,####,       
                ,###########''''           ''''###############################       
              ,#####''   ,,,,##########,,,,          '''####'''          '####       
            ,##' ,,,,###########################,,,                        '##       
           ' ,,###''''                  '''############,,,                           
         ,,##''                                '''############,,,,        ,,,,,,###''
      ,#''                                            '''#######################'''  
     '                                                          ''''####''''         
             ,#######,   #######,   ,#######,      ##                                
            ,#'     '#,  ##    ##  ,#'     '#,    #''#        ######   ,####,        
            ##       ##  ##   ,#'  ##            #'  '#       #        #'  '#        
            ##       ##  #######   ##           ,######,      #####,   #    #        
            '#,     ,#'  ##    ##  '#,     ,#' ,#      #,         ##   #,  ,#        
             '#######'   ##     ##  '#######'  #'      '#     #####' # '####'        



                  #######################################################
                  #                        -***-                        #
                  #          Department of theory and spectroscopy      #
                  #    Directorship and core code : Frank Neese         #
                  #        Max Planck Institute fuer Kohlenforschung    #
                  #                Kaiser Wilhelm Platz 1               #
                  #                 D-45470 Muelheim/Ruhr               #
                  #                      Germany                        #
                  #                                                     #
                  #                  All rights reserved                #
                  #                        -***-                        #
                  #######################################################


                         Program Version 5.0.0 -  RELEASE  -
                                (SVN: $Rev: 19529$)
                ($Date: 2021-06-28 11:36:33 +0200 (Mo, 28 Jun 2021) $)


 With contributions from (in alphabetic order):
   Daniel Aravena         : Magnetic Suceptibility
   Michael Atanasov       : Ab Initio Ligand Field Theory (pilot matlab implementation)
   Alexander A. Auer      : GIAO ZORA, VPT2 properties, NMR spectrum
   Ute Becker             : Parallelization
   Giovanni Bistoni       : ED, misc. LED, open-shell LED, HFLD
   Martin Brehm           : Molecular dynamics
   Dmytro Bykov           : SCF Hessian
   Vijay G. Chilkuri      : MRCI spin determinant printing, contributions to CSF-ICE
   Dipayan Datta          : RHF DLPNO-CCSD density
   Achintya Kumar Dutta   : EOM-CC, STEOM-CC
   Dmitry Ganyushin       : Spin-Orbit,Spin-Spin,Magnetic field MRCI
   Miquel Garcia          : C-PCM Hessian, Gaussian charge scheme
   Yang Guo               : DLPNO-NEVPT2, F12-NEVPT2, CIM, IAO-localization
   Andreas Hansen         : Spin unrestricted coupled pair/coupled cluster methods
   Benjamin Helmich-Paris : MC-RPA, TRAH-SCF, COSX integrals
   Lee Huntington         : MR-EOM, pCC
   Robert Izsak           : Overlap fitted RIJCOSX, COSX-SCS-MP3, EOM
   Marcus Kettner         : VPT2
   Christian Kollmar      : KDIIS, OOCD, Brueckner-CCSD(T), CCSD density, CASPT2, CASPT2-K
   Simone Kossmann        : Meta GGA functionals, TD-DFT gradient, OOMP2, MP2 Hessian
   Martin Krupicka        : Initial AUTO-CI
   Lucas Lang             : DCDCAS
   Marvin Lechner         : AUTO-CI (C++ implementation), FIC-MRCC
   Dagmar Lenk            : GEPOL surface, SMD
   Dimitrios Liakos       : Extrapolation schemes; Compound Job, initial MDCI parallelization
   Dimitrios Manganas     : Further ROCIS development; embedding schemes
   Dimitrios Pantazis     : SARC Basis sets
   Anastasios Papadopoulos: AUTO-CI, single reference methods and gradients
   Taras Petrenko         : DFT Hessian,TD-DFT gradient, ASA, ECA, R-Raman, ABS, FL, XAS/XES, NRVS
   Peter Pinski           : DLPNO-MP2, DLPNO-MP2 Gradient
   Christoph Reimann      : Effective Core Potentials
   Marius Retegan         : Local ZFS, SOC
   Christoph Riplinger    : Optimizer, TS searches, QM/MM, DLPNO-CCSD(T), (RO)-DLPNO pert. Triples
   Tobias Risthaus        : Range-separated hybrids, TD-DFT gradient, RPA, STAB
   Michael Roemelt        : Original ROCIS implementation
   Masaaki Saitow         : Open-shell DLPNO-CCSD energy and density
   Barbara Sandhoefer     : DKH picture change effects
   Avijit Sen             : IP-ROCIS
   Kantharuban Sivalingam : CASSCF convergence, NEVPT2, FIC-MRCI
   Bernardo de Souza      : ESD, SOC TD-DFT
   Georgi Stoychev        : AutoAux, RI-MP2 NMR
   Willem Van den Heuvel  : Paramagnetic NMR
   Boris Wezisla          : Elementary symmetry handling
   Frank Wennmohs         : Technical directorship


 We gratefully acknowledge several colleagues who have allowed us to
 interface, adapt or use parts of their codes:
   Stefan Grimme, W. Hujo, H. Kruse, P. Pracht,  : VdW corrections, initial TS optimization,
                  C. Bannwarth, S. Ehlert          DFT functionals, gCP, sTDA/sTD-DF
   Ed Valeev, F. Pavosevic, A. Kumar             : LibInt (2-el integral package), F12 methods
   Garnet Chan, S. Sharma, J. Yang, R. Olivares  : DMRG
   Ulf Ekstrom                                   : XCFun DFT Library
   Mihaly Kallay                                 : mrcc  (arbitrary order and MRCC methods)
   Jiri Pittner, Ondrej Demel                    : Mk-CCSD
   Frank Weinhold                                : gennbo (NPA and NBO analysis)
   Christopher J. Cramer and Donald G. Truhlar   : smd solvation model
   Lars Goerigk                                  : TD-DFT with DH, B97 family of functionals
   V. Asgeirsson, H. Jonsson                     : NEB implementation
   FAccTs GmbH                                   : IRC, NEB, NEB-TS, DLPNO-Multilevel, CI-OPT
                                                   MM, QMMM, 2- and 3-layer-ONIOM, Crystal-QMMM,
                                                   LR-CPCM, SF, NACMEs, symmetry and pop. for TD-DFT,
                                                   nearIR, NL-DFT gradient (VV10), updates on ESD,
                                                   ML-optimized integration grids
   S Lehtola, MJT Oliveira, MAL Marques          : LibXC Library
   Liviu Ungur et al                             : ANISO software


 Your calculation uses the libint2 library for the computation of 2-el integrals
 For citations please refer to: http://libint.valeyev.net

 Your ORCA version has been built with support for libXC version: 5.1.0
 For citations please refer to: https://tddft.org/programs/libxc/

 This ORCA versions uses:
   CBLAS   interface :  Fast vector & matrix operations
   LAPACKE interface :  Fast linear algebra routines
   SCALAPACK package :  Parallel linear algebra routines
   Shared memory     :  Shared parallel matrices
   BLAS/LAPACK       :  OpenBLAS 0.3.15  USE64BITINT DYNAMIC_ARCH NO_AFFINITY SkylakeX SINGLE_THREADED
        Core in use  :  SkylakeX
   Copyright (c) 2011-2014, The OpenBLAS Project




***************************************
The coordinates will be read from file: ../32Nd-28Ne-nta-co-min.xyz
***************************************


Your calculation utilizes the atom-pairwise dispersion correction
with the Becke-Johnson damping scheme (D3BJ)
Cite in your paper:
S.Grimme, S.Ehrlich, L.Goerigk, J Comput Chem, (2011), 32, 1456–1465 
S.Grimme, J.Antony, S.Ehrlich and H.Krieg, J.Chem.Phys., 132, (2010), 154104 
   

Your calculation utilizes the SMD solvation module
Please cite in your paper:
A.V. Marenich, C.J. Cramer, D.G. Truhlar J. Phys. Chem. B, 113, (2009), 6378 

================================================================================

----- Orbital basis set information -----
Your calculation utilizes the basis: def2-SVP
   F. Weigend and R. Ahlrichs, Phys. Chem. Chem. Phys. 7, 3297 (2005).

The basis set includes element-specific modifications.

Your calculation utilizes the basis: def2-TZVP
   F. Weigend and R. Ahlrichs, Phys. Chem. Chem. Phys. 7, 3297 (2005).

----- AuxJ basis set information -----
Your calculation utilizes the auxiliary basis: def2/J
   F. Weigend, Phys. Chem. Chem. Phys. 8, 1057 (2006).

================================================================================
                                        WARNINGS
                       Please study these warnings very carefully!
================================================================================


WARNING: Geometry Optimization
  ===> : Switching off AutoStart
         For restart on a previous wavefunction, please use MOREAD

INFO   : the flag for use of the SHARK integral package has been found!

================================================================================
                                       INPUT FILE
================================================================================
NAME = opt.inp
|  1> ! RI BP86 def2-SVP def2/J D3BJ TIGHTSCF Opt
|  2> ! CPCM
|  3> # memory
|  4> %maxcore 32000
|  5> # smd solvation model
|  6> %cpcm
|  7> smd true
|  8> SMDsolvent "DMF"
|  9> end
| 10> # triple zeta basis on Co
| 11> %basis newgto Co "def2-TZVP" end end
| 12> # constrain CA and CB atoms of diHis (determined by backbone helix)
| 13> # and constrain Co in PCS defined position
| 14> %geom
| 15> Constraints
| 16> {C 0 C}
| 17> {C 1 C}
| 18> {C 13 C}
| 19> end
| 20> end
| 21>  * xyzfile 0 1 ../32Nd-28Ne-nta-co-min.xyz
| 22> 
| 23>                          ****END OF INPUT****
================================================================================

                       *****************************
                       * Geometry Optimization Run *
                       *****************************

Geometry optimization settings:
Update method            Update   .... BFGS
Choice of coordinates    CoordSys .... Z-matrix Internals
Initial Hessian          InHess   .... Almoef's Model

Convergence Tolerances:
Energy Change            TolE     ....  5.0000e-06 Eh
Max. Gradient            TolMAXG  ....  3.0000e-04 Eh/bohr
RMS Gradient             TolRMSG  ....  1.0000e-04 Eh/bohr
Max. Displacement        TolMAXD  ....  4.0000e-03 bohr
RMS Displacement         TolRMSD  ....  2.0000e-03 bohr
Strict Convergence                ....  False
------------------------------------------------------------------------------
                        ORCA OPTIMIZATION COORDINATE SETUP
------------------------------------------------------------------------------

The optimization will be done in new redundant internal coordinates
Making redundant internal coordinates   ...  (new redundants) done
Evaluating the initial hessian          ...  (Almloef) done
Evaluating the coordinates              ...  done
Calculating the B-matrix                .... done
Calculating the G-matrix                .... done
Diagonalizing the G-matrix              .... done
Imposing constraints:
 Iter   0:  RMS(Cart)=    0.0000000000 RMS(Int)=    0.0000000000
CONVERGED
Will constrain atom 0 coordinate 1 
Will constrain atom 0 coordinate 2 
Will constrain atom 0 coordinate 3 
Will constrain atom 1 coordinate 1 
Will constrain atom 1 coordinate 2 
Will constrain atom 1 coordinate 3 
Will constrain atom 13 coordinate 1 
Will constrain atom 13 coordinate 2 
Will constrain atom 13 coordinate 3 
Small eigenvalue found = 2.802e-03
Small eigenvalue found = 1.199e-02
Small eigenvalue found = 1.558e-02
Small eigenvalue found = 2.574e-02
Small eigenvalue found = 2.984e-02
The first mode is                       ....  558
The number of degrees of freedom        ....  150
Storing new coordinates                 .... done

    -----------------------------------------------------------------
                    Redundant Internal Coordinates


    -----------------------------------------------------------------
         Definition                    Initial Value    Approx d2E/dq
    -----------------------------------------------------------------
      1. B(C   2,C   1)                  1.5453         0.353214   
      2. B(C   3,C   2)                  1.5350         0.366824   
      3. B(C   4,C   3)                  1.3368         0.759579   
      4. B(N   5,C   3)                  1.4132         0.513820   
      5. B(C   6,N   5)                  1.4419         0.462472   
      6. B(N   7,Co  0)                  1.9396         0.751835   
      7. B(N   7,C   4)                  1.4290         0.484840   
      8. B(N   7,C   6)                  1.4410         0.463961   
      9. B(H   8,C   2)                  1.1109         0.333536   
     10. B(H   9,C   2)                  1.1108         0.333589   
     11. B(H  10,N   5)                  1.0301         0.401845   
     12. B(H  11,C   4)                  1.0815         0.371490   
     13. B(H  12,C   6)                  1.1100         0.334642   
     14. B(C  14,C  13)                  1.7761         0.151291   
     15. B(C  15,C  14)                  1.6829         0.213015   
     16. B(C  16,C  15)                  1.3785         0.651715   
     17. B(N  17,Co  0)                  2.2660         0.226705   
     18. B(N  17,C  15)                  1.5025         0.370207   
     19. B(C  18,N  17)                  1.3652         0.613003   
     20. B(N  19,C  16)                  1.3221         0.718024   
     21. B(N  19,C  18)                  1.3347         0.685637   
     22. B(H  20,C  14)                  1.1100         0.334602   
     23. B(H  21,C  14)                  1.1096         0.335094   
     24. B(H  22,C  16)                  1.0823         0.370464   
     25. B(H  23,C  18)                  1.0543         0.410497   
     26. B(H  24,N  19)                  1.0442         0.381647   
     27. B(O  25,Co  0)                  1.8081         1.218698   
     28. B(O  26,Co  0)                  1.8106         1.207622   
     29. B(O  27,Co  0)                  1.8105         1.208222   
     30. B(N  28,Co  0)                  1.9467         0.732407   
     31. B(C  32,Co  0)                  2.6861         0.054078   
     32. B(C  32,O  26)                  1.3252         0.709977   
     33. B(C  32,O  30)                  1.2204         1.043494   
     34. B(C  33,Co  0)                  2.6005         0.074058   
     35. B(C  33,O  25)                  1.3579         0.629588   
     36. B(C  33,O  31)                  1.2198         1.045605   
     37. B(C  34,Co  0)                  2.6527         0.061138   
     38. B(C  34,O  27)                  1.3539         0.638961   
     39. B(C  34,O  29)                  1.2201         1.044392   
     40. B(C  35,Co  0)                  2.7096         0.049605   
     41. B(C  35,N  28)                  1.4773         0.406063   
     42. B(C  35,C  33)                  1.5201         0.387441   
     43. B(H  36,C  35)                  1.1091         0.335705   
     44. B(H  37,C  35)                  1.1139         0.329877   
     45. B(C  38,Co  0)                  2.7840         0.037741   
     46. B(C  38,N  28)                  1.4813         0.400116   
     47. B(C  38,C  34)                  1.5078         0.405307   
     48. B(H  39,C  38)                  1.1113         0.332973   
     49. B(H  40,C  38)                  1.1089         0.335911   
     50. B(C  41,Co  0)                  2.8170         0.033439   
     51. B(C  41,N  28)                  1.5048         0.367107   
     52. B(C  41,C  32)                  1.4677         0.469565   
     53. B(H  42,C  41)                  1.1145         0.329131   
     54. B(H  43,C  41)                  1.1110         0.333315   
     55. B(H  44,C  13)                  1.1095         0.335219   
     56. B(H  45,C  13)                  1.1096         0.335078   
     57. B(H  46,C  13)                  1.1095         0.335204   
     58. B(H  47,C   1)                  1.1105         0.334036   
     59. B(H  47,H  45)                  4.9269         0.000000   
     60. B(H  48,C   1)                  1.1103         0.334214   
     61. B(H  49,C   1)                  1.1104         0.334052   
     62. A(O  26,Co  0,N  28)           86.0829         0.638343   
     63. A(O  25,Co  0,O  26)           92.6370         0.705449   
     64. A(N   7,Co  0,C  33)          118.5851         0.384498   
     65. A(O  26,Co  0,C  33)          104.1703         0.417955   
     66. A(C  32,Co  0,C  34)           81.2313         0.245863   
     67. A(C  35,Co  0,C  38)           54.7311         0.226917   
     68. A(C  32,Co  0,C  41)           30.8205         0.225839   
     69. A(N  17,Co  0,C  33)           74.0277         0.314273   
     70. A(O  26,Co  0,O  27)           89.0751         0.704245   
     71. A(N   7,Co  0,O  26)           91.6917         0.641608   
     72. A(N  17,Co  0,C  38)           86.8919         0.282395   
     73. A(N  17,Co  0,C  34)           92.9877         0.304707   
     74. A(O  26,Co  0,C  32)           26.0709         0.395359   
     75. A(N  28,Co  0,C  33)           61.5100         0.382752   
     76. A(O  27,Co  0,C  35)          113.2561         0.389464   
     77. A(O  26,Co  0,C  35)          106.4418         0.389430   
     78. A(N   7,Co  0,C  35)          148.9297         0.358874   
     79. A(N   7,Co  0,N  17)           88.4069         0.467434   
     80. A(C  34,Co  0,C  35)           86.5436         0.242828   
     81. A(N   7,Co  0,O  25)           92.5344         0.642751   
     82. A(N  28,Co  0,C  38)           30.4313         0.341184   
     83. A(N  17,Co  0,C  35)           72.6036         0.294739   
     84. A(O  25,Co  0,C  38)          115.8721         0.371990   
     85. A(C  32,Co  0,C  33)           86.2408         0.252820   
     86. A(C  33,Co  0,C  41)           67.4432         0.235932   
     87. A(N  17,Co  0,C  32)          153.3451         0.298799   
     88. A(O  27,Co  0,C  32)           93.7350         0.395393   
     89. A(N   7,Co  0,C  32)          117.1445         0.364200   
     90. A(N   7,Co  0,C  38)          150.6688         0.342683   
     91. A(N  28,Co  0,C  41)           30.3907         0.334370   
     92. A(O  26,Co  0,C  34)           88.7285         0.403986   
     93. A(N  17,Co  0,N  28)           93.7953         0.465198   
     94. A(C  34,Co  0,C  38)           32.0868         0.233599   
     95. A(O  26,Co  0,C  38)           94.0013         0.371406   
     96. A(N  28,Co  0,C  32)           60.5795         0.362574   
     97. A(N  28,Co  0,C  35)           31.9734         0.357280   
     98. A(O  27,Co  0,C  38)           59.8271         0.371437   
     99. A(N  28,Co  0,C  34)           61.0601         0.370278   
    100. A(C  33,Co  0,C  35)           33.1875         0.249650   
    101. A(N  17,Co  0,O  25)           85.3324         0.511153   
    102. A(C  32,Co  0,C  38)           74.3763         0.229638   
    103. A(O  27,Co  0,N  28)           89.0120         0.638405   
    104. A(C  34,Co  0,C  41)           72.6250         0.229692   
    105. A(N   7,Co  0,C  41)          147.3008         0.335829   
    106. A(C  32,Co  0,C  35)           81.0543         0.238615   
    107. A(N   7,Co  0,C  34)          119.5586         0.371949   
    108. A(C  33,Co  0,C  38)           87.7780         0.240012   
    109. A(N   7,Co  0,O  27)           91.5687         0.641670   
    110. A(C  38,Co  0,C  41)           51.8891         0.215140   
    111. A(N  17,Co  0,C  41)          122.6925         0.277170   
    112. A(O  25,Co  0,N  28)           86.9598         0.639480   
    113. A(O  25,Co  0,C  32)           86.0239         0.395992   
    114. A(C  33,Co  0,C  34)          119.7190         0.257434   
    115. A(O  25,Co  0,C  41)           81.3308         0.364344   
    116. A(O  25,Co  0,C  35)           62.2659         0.390052   
    117. A(O  25,Co  0,C  33)           29.4616         0.418636   
    118. A(O  27,Co  0,C  34)           27.9922         0.404021   
    119. A(O  26,Co  0,C  41)           56.8535         0.363775   
    120. A(O  25,Co  0,C  34)          147.8371         0.404637   
    121. A(O  27,Co  0,C  33)          146.0465         0.417992   
    122. A(O  27,Co  0,C  41)           96.1660         0.363806   
    123. A(N  17,Co  0,O  27)           92.9498         0.510329   
    124. A(C  35,Co  0,C  41)           51.8999         0.223190   
    125. A(C   2,C   1,H  48)          109.8271         0.317462   
    126. A(C   2,C   1,H  47)          109.8255         0.317435   
    127. A(H  47,C   1,H  48)          109.1180         0.284114   
    128. A(C   2,C   1,H  49)          109.9126         0.317437   
    129. A(H  48,C   1,H  49)          109.0647         0.284116   
    130. A(H  47,C   1,H  49)          109.0712         0.284092   
    131. A(C   1,C   2,C   3)          119.5545         0.358778   
    132. A(C   1,C   2,H   8)          107.3699         0.317357   
    133. A(C   3,C   2,H   8)          107.2224         0.319320   
    134. A(C   1,C   2,H   9)          107.2257         0.317366   
    135. A(C   3,C   2,H   9)          107.1379         0.319328   
    136. A(H   8,C   2,H   9)          107.8623         0.283965   
    137. A(C   4,C   3,N   5)          108.2849         0.432406   
    138. A(C   2,C   3,N   5)          121.0699         0.380245   
    139. A(C   2,C   3,C   4)          130.6440         0.409827   
    140. A(N   7,C   4,H  11)          124.6608         0.338319   
    141. A(C   3,C   4,N   7)          109.8006         0.427923   
    142. A(C   3,C   4,H  11)          125.5385         0.367275   
    143. A(C   3,N   5,C   6)          110.0079         0.393401   
    144. A(C   6,N   5,H  10)          124.8733         0.337166   
    145. A(C   3,N   5,H  10)          125.1144         0.343151   
    146. A(N   5,C   6,H  12)          110.0917         0.329904   
    147. A(N   7,C   6,H  12)          110.2402         0.330079   
    148. A(N   5,C   6,N   7)          103.5202         0.386449   
    149. A(C   4,N   7,C   6)          108.3836         0.389646   
    150. A(Co  0,N   7,C   6)          124.5095         0.473399   
    151. A(Co  0,N   7,C   4)          126.9821         0.477248   
    152. A(H  44,C  13,H  45)          109.3229         0.284384   
    153. A(C  14,C  13,H  44)          109.5262         0.277698   
    154. A(C  14,C  13,H  45)          109.5816         0.277680   
    155. A(C  14,C  13,H  46)          109.5822         0.277696   
    156. A(H  45,C  13,H  46)          109.3280         0.284382   
    157. A(H  44,C  13,H  46)          109.4859         0.284401   
    158. A(C  13,C  14,H  20)          104.5281         0.277619   
    159. A(C  15,C  14,H  20)          104.4909         0.292807   
    160. A(C  13,C  14,H  21)          105.1549         0.277682   
    161. A(C  15,C  14,H  21)          105.0891         0.292875   
    162. A(H  20,C  14,H  21)          107.0123         0.284305   
    163. A(C  13,C  14,C  15)          129.0649         0.285896   
    164. A(C  14,C  15,C  16)          108.1309         0.363025   
    165. A(C  14,C  15,N  17)          145.0181         0.328117   
    166. A(C  16,C  15,N  17)          106.8409         0.396985   
    167. A(C  15,C  16,H  22)          126.9081         0.357625   
    168. A(N  19,C  16,H  22)          122.7458         0.361322   
    169. A(C  15,C  16,N  19)          110.3325         0.446805   
    170. A(Co  0,N  17,C  15)          150.3273         0.367450   
    171. A(Co  0,N  17,C  18)          109.5257         0.401119   
    172. A(C  15,N  17,C  18)          100.0259         0.390247   
    173. A(N  17,C  18,H  23)          126.9088         0.357922   
    174. A(N  19,C  18,H  23)          117.6897         0.364824   
    175. A(N  17,C  18,N  19)          115.3996         0.435339   
    176. A(C  16,N  19,C  18)          107.3366         0.447959   
    177. A(C  16,N  19,H  24)          126.2420         0.359967   
    178. A(C  18,N  19,H  24)          126.4131         0.357151   
    179. A(Co  0,O  25,C  33)          109.6258         0.548482   
    180. A(Co  0,O  26,C  32)          117.0261         0.560176   
    181. A(Co  0,O  27,C  34)          113.1320         0.549121   
    182. A(Co  0,N  28,C  41)          108.7283         0.451404   
    183. A(C  35,N  28,C  41)          108.5037         0.362912   
    184. A(Co  0,N  28,C  35)          103.7764         0.459772   
    185. A(C  38,N  28,C  41)          110.3032         0.361999   
    186. A(Co  0,N  28,C  38)          107.8367         0.458536   
    187. A(C  35,N  28,C  38)          117.2565         0.368302   
    188. A(Co  0,C  32,O  30)          157.3109         0.345016   
    189. A(O  26,C  32,O  30)          121.2018         0.482750   
    190. A(Co  0,C  32,C  41)           79.5203         0.304459   
    191. A(O  26,C  32,C  41)          116.3302         0.420372   
    192. A(O  30,C  32,C  41)          122.3543         0.450552   
    193. A(Co  0,C  32,O  26)           36.9029         0.323646   
    194. A(Co  0,C  33,O  25)           40.9126         0.334193   
    195. A(Co  0,C  33,O  31)          156.9497         0.364026   
    196. A(O  25,C  33,O  31)          120.7992         0.472360   
    197. A(Co  0,C  33,C  35)           77.3500         0.310500   
    198. A(O  25,C  33,C  35)          117.3509         0.397750   
    199. A(O  31,C  33,C  35)          121.6278         0.435316   
    200. A(Co  0,C  34,O  27)           38.8758         0.324567   
    201. A(Co  0,C  34,O  29)          159.1702         0.352277   
    202. A(O  27,C  34,O  29)          120.3766         0.473544   
    203. A(Co  0,C  34,C  38)           78.7577         0.303269   
    204. A(O  27,C  34,C  38)          117.0275         0.401962   
    205. A(O  29,C  34,C  38)          121.1561         0.438775   
    206. A(Co  0,C  35,N  28)           44.2502         0.291771   
    207. A(Co  0,C  35,C  33)           69.4625         0.291293   
    208. A(N  28,C  35,C  33)          105.8906         0.368575   
    209. A(Co  0,C  35,H  36)          101.6541         0.258376   
    210. A(N  28,C  35,H  36)          112.8987         0.323083   
    211. A(C  33,C  35,H  36)          108.4857         0.322531   
    212. A(Co  0,C  35,H  37)          148.7848         0.257706   
    213. A(N  28,C  35,H  37)          110.8335         0.322157   
    214. A(C  33,C  35,H  37)          111.9537         0.321607   
    215. A(H  36,C  35,H  37)          106.8438         0.283757   
    216. A(N  28,C  38,C  34)          107.7396         0.370501   
    217. A(Co  0,C  38,H  39)          143.1064         0.247920   
    218. A(N  28,C  38,H  39)          113.0813         0.321871   
    219. A(C  34,C  38,H  39)          110.8297         0.324490   
    220. A(Co  0,C  38,H  40)          110.5238         0.248236   
    221. A(N  28,C  38,H  40)          112.0212         0.322335   
    222. A(C  34,C  38,H  40)          108.8383         0.324958   
    223. A(H  39,C  38,H  40)          104.2837         0.284197   
    224. A(Co  0,C  38,N  28)           41.7320         0.278970   
    225. A(Co  0,C  38,C  34)           69.1555         0.281106   
    226. A(Co  0,C  41,N  28)           40.8810         0.270270   
    227. A(Co  0,C  41,C  32)           69.6592         0.282246   
    228. A(N  28,C  41,C  32)          109.1508         0.374418   
    229. A(Co  0,C  41,H  42)          114.7505         0.243220   
    230. A(N  28,C  41,H  42)          113.4359         0.316778   
    231. A(C  32,C  41,H  42)          105.1520         0.331827   
    232. A(Co  0,C  41,H  43)          138.1417         0.243662   
    233. A(N  28,C  41,H  43)          113.1979         0.317430   
    234. A(C  32,C  41,H  43)          109.6645         0.332522   
    235. A(H  42,C  41,H  43)          105.8828         0.283343   
    236. D(H   8,C   2,C   1,H  49)     57.8337         0.010037   
    237. D(C   3,C   2,C   1,H  48)    -59.8963         0.010037   
    238. D(H   8,C   2,C   1,H  47)    -62.1672         0.010037   
    239. D(C   3,C   2,C   1,H  49)   -179.8902         0.010037   
    240. D(H   8,C   2,C   1,H  48)    177.8276         0.010037   
    241. D(C   3,C   2,C   1,H  47)     60.1089         0.010037   
    242. D(H   9,C   2,C   1,H  47)   -177.8546         0.010037   
    243. D(H   9,C   2,C   1,H  48)     62.1402         0.010037   
    244. D(H   9,C   2,C   1,H  49)    -57.8537         0.010037   
    245. D(N   5,C   3,C   2,H   8)    -58.2569         0.010089   
    246. D(N   5,C   3,C   2,C   1)    179.3944         0.010089   
    247. D(C   4,C   3,C   2,C   1)     -0.1500         0.010089   
    248. D(N   5,C   3,C   2,H   9)     57.3146         0.010089   
    249. D(C   4,C   3,C   2,H   9)   -122.2298         0.010089   
    250. D(C   4,C   3,C   2,H   8)    122.1988         0.010089   
    251. D(N   7,C   4,C   3,C   2)    179.8652         0.041248   
    252. D(N   7,C   4,C   3,N   5)      0.2762         0.041248   
    253. D(H  11,C   4,C   3,C   2)     -0.0398         0.041248   
    254. D(H  11,C   4,C   3,N   5)   -179.6288         0.041248   
    255. D(C   6,N   5,C   3,C   4)      0.0645         0.020912   
    256. D(C   6,N   5,C   3,C   2)   -179.5714         0.020912   
    257. D(H  10,N   5,C   3,C   4)    179.3330         0.020912   
    258. D(H  10,N   5,C   3,C   2)     -0.3029         0.020912   
    259. D(N   7,C   6,N   5,H  10)   -179.6347         0.016851   
    260. D(H  12,C   6,N   5,C   3)    117.4644         0.016851   
    261. D(N   7,C   6,N   5,C   3)     -0.3641         0.016851   
    262. D(H  12,C   6,N   5,H  10)    -61.8062         0.016851   
    263. D(C   6,N   7,Co  0,O  27)     23.9572         0.005495   
    264. D(C   4,N   7,Co  0,C  41)     95.4389         0.005495   
    265. D(Co  0,N   7,C   6,N   5)    176.6980         0.016961   
    266. D(Co  0,N   7,C   4,C   3)   -176.5742         0.018552   
    267. D(C   6,N   7,C   4,H  11)    179.3905         0.018552   
    268. D(C   4,N   7,Co  0,C  33)      3.1390         0.005495   
    269. D(C   6,N   7,Co  0,C  33)   -172.3210         0.005495   
    270. D(C   4,N   7,Co  0,O  25)     17.5809         0.005495   
    271. D(C   6,N   7,Co  0,O  26)    -65.1634         0.005495   
    272. D(C   6,N   7,Co  0,N  17)    116.8656         0.005495   
    273. D(C   4,N   7,Co  0,C  35)    -16.4082         0.005495   
    274. D(C   4,N   7,Co  0,N  17)    -67.6744         0.005495   
    275. D(C   4,N   7,C   6,N   5)      0.5186         0.016961   
    276. D(C   4,N   7,Co  0,O  26)    110.2966         0.005495   
    277. D(Co  0,N   7,C   6,H  12)     58.9730         0.016961   
    278. D(C   6,N   7,Co  0,C  38)     36.0856         0.005495   
    279. D(C   6,N   7,Co  0,C  35)    168.1318         0.005495   
    280. D(C   4,N   7,Co  0,C  34)   -160.2060         0.005495   
    281. D(C   4,N   7,Co  0,O  27)   -160.5827         0.005495   
    282. D(C   6,N   7,Co  0,C  41)    -80.0211         0.005495   
    283. D(C   6,N   7,C   4,C   3)     -0.5154         0.018552   
    284. D(Co  0,N   7,C   4,H  11)      3.3318         0.018552   
    285. D(C   6,N   7,Co  0,C  34)     24.3340         0.005495   
    286. D(C   6,N   7,Co  0,C  32)    -71.0495         0.005495   
    287. D(C   4,N   7,Co  0,C  38)   -148.4544         0.005495   
    288. D(C   4,N   7,Co  0,C  32)    104.4105         0.005495   
    289. D(C   6,N   7,Co  0,O  25)   -157.8791         0.005495   
    290. D(C   4,N   7,C   6,H  12)   -117.2064         0.016961   
    291. D(C  15,C  14,C  13,H  46)     59.0886         0.002911   
    292. D(H  20,C  14,C  13,H  44)    176.0630         0.002911   
    293. D(C  15,C  14,C  13,H  44)    -61.0314         0.002911   
    294. D(C  15,C  14,C  13,H  45)    179.0489         0.002911   
    295. D(H  21,C  14,C  13,H  44)     63.5235         0.002911   
    296. D(H  21,C  14,C  13,H  45)    -56.3962         0.002911   
    297. D(H  20,C  14,C  13,H  45)     56.1433         0.002911   
    298. D(H  20,C  14,C  13,H  46)    -63.8171         0.002911   
    299. D(H  21,C  14,C  13,H  46)   -176.3565         0.002911   
    300. D(C  16,C  15,C  14,C  13)      0.5059         0.004179   
    301. D(C  16,C  15,C  14,H  21)   -124.0749         0.004179   
    302. D(C  16,C  15,C  14,H  20)    123.4264         0.004179   
    303. D(N  17,C  15,C  14,H  20)    -55.1483         0.004179   
    304. D(N  17,C  15,C  14,C  13)   -178.0689         0.004179   
    305. D(N  17,C  15,C  14,H  21)     57.3504         0.004179   
    306. D(N  19,C  16,C  15,C  14)   -177.4768         0.029584   
    307. D(N  19,C  16,C  15,N  17)      1.6695         0.029584   
    308. D(H  22,C  16,C  15,C  14)      1.2003         0.029584   
    309. D(H  22,C  16,C  15,N  17)   -179.6534         0.029584   
    310. D(C  15,N  17,Co  0,C  33)    -57.6613         0.001870   
    311. D(C  15,N  17,Co  0,C  32)   -101.4232         0.001870   
    312. D(C  15,N  17,Co  0,O  27)    154.2145         0.001870   
    313. D(C  15,N  17,Co  0,C  35)    -92.3216         0.001870   
    314. D(Co  0,N  17,C  15,C  14)      1.3930         0.010897   
    315. D(C  18,N  17,Co  0,C  38)     39.1765         0.001870   
    316. D(C  15,N  17,Co  0,N  28)   -116.5811         0.001870   
    317. D(C  15,N  17,Co  0,N   7)     62.7252         0.001870   
    318. D(C  15,N  17,Co  0,C  34)   -177.7550         0.001870   
    319. D(C  15,N  17,Co  0,C  41)   -106.5282         0.001870   
    320. D(C  18,N  17,C  15,C  14)    176.2117         0.010897   
    321. D(C  18,N  17,Co  0,C  35)     93.0926         0.001870   
    322. D(C  18,N  17,Co  0,O  25)    155.4652         0.001870   
    323. D(C  18,N  17,Co  0,C  34)      7.6592         0.001870   
    324. D(C  18,N  17,Co  0,C  32)     83.9910         0.001870   
    325. D(C  18,N  17,Co  0,N   7)   -111.8607         0.001870   
    326. D(C  18,N  17,Co  0,O  27)    -20.3714         0.001870   
    327. D(C  18,N  17,Co  0,C  33)    127.7529         0.001870   
    328. D(C  18,N  17,C  15,C  16)     -2.3731         0.010897   
    329. D(C  15,N  17,Co  0,O  25)    -29.9489         0.001870   
    330. D(Co  0,N  17,C  15,C  16)   -177.1918         0.010897   
    331. D(C  18,N  17,Co  0,C  41)     78.8859         0.001870   
    332. D(C  18,N  17,Co  0,N  28)     68.8330         0.001870   
    333. D(C  15,N  17,Co  0,C  38)   -146.2376         0.001870   
    334. D(H  23,C  18,N  17,Co  0)      0.2548         0.030375   
    335. D(N  19,C  18,N  17,C  15)      2.4535         0.030375   
    336. D(H  23,C  18,N  17,C  15)   -177.0264         0.030375   
    337. D(N  19,C  18,N  17,Co  0)    179.7347         0.030375   
    338. D(C  18,N  19,C  16,C  15)     -0.1899         0.042887   
    339. D(H  24,N  19,C  18,H  23)     -1.0767         0.038743   
    340. D(C  16,N  19,C  18,H  23)    177.9224         0.038743   
    341. D(H  24,N  19,C  16,C  15)    178.8114         0.042887   
    342. D(H  24,N  19,C  18,N  17)    179.3929         0.038743   
    343. D(C  18,N  19,C  16,H  22)   -178.9321         0.042887   
    344. D(H  24,N  19,C  16,H  22)      0.0692         0.042887   
    345. D(C  16,N  19,C  18,N  17)     -1.6080         0.038743   
    346. D(C  33,O  25,Co  0,N  28)     28.6954         0.011825   
    347. D(C  33,O  25,Co  0,N   7)   -153.5598         0.011825   
    348. D(C  33,O  25,Co  0,O  26)    114.6281         0.011825   
    349. D(C  33,O  25,Co  0,C  32)     89.3941         0.011825   
    350. D(C  33,O  25,Co  0,C  34)     22.8223         0.011825   
    351. D(C  33,O  25,Co  0,N  17)    -65.3669         0.011825   
    352. D(C  33,O  25,Co  0,C  35)      7.4165         0.011825   
    353. D(C  33,O  25,Co  0,C  38)     18.8906         0.011825   
    354. D(C  33,O  25,Co  0,C  41)     58.7331         0.011825   
    355. D(C  32,O  26,Co  0,C  34)     72.4467         0.011632   
    356. D(C  32,O  26,Co  0,C  35)    -13.5723         0.011632   
    357. D(C  32,O  26,Co  0,O  27)    100.4420         0.011632   
    358. D(C  32,O  26,Co  0,N  28)     11.3691         0.011632   
    359. D(C  32,O  26,Co  0,N   7)   -168.0157         0.011632   
    360. D(C  32,O  26,Co  0,C  33)    -47.9395         0.011632   
    361. D(C  32,O  26,Co  0,C  38)     40.7756         0.011632   
    362. D(C  32,O  26,Co  0,O  25)    -75.3994         0.011632   
    363. D(C  32,O  26,Co  0,C  41)      2.4611         0.011632   
    364. D(C  32,O  26,N  17,C  15)   -104.0241         0.001500   
    365. D(C  32,O  26,N  17,C  18)     80.4812         0.001500   
    366. D(C  34,O  27,Co  0,C  32)    -63.3649         0.011642   
    367. D(C  34,O  27,Co  0,C  41)    -32.5202         0.011642   
    368. D(C  34,O  27,Co  0,O  26)    -89.0310         0.011642   
    369. D(C  34,O  27,Co  0,N  17)     90.8167         0.011642   
    370. D(C  34,O  27,Co  0,C  33)     25.4499         0.011642   
    371. D(C  34,O  27,Co  0,C  38)      6.1391         0.011642   
    372. D(C  34,O  27,Co  0,C  35)     18.4972         0.011642   
    373. D(C  34,O  27,Co  0,N   7)    179.3018         0.011642   
    374. D(C  34,O  27,O  25,C  33)     25.3364         0.001500   
    375. D(C  34,O  27,Co  0,N  28)     -2.9332         0.011642   
    376. D(C  41,N  28,Co  0,C  38)   -119.6024         0.005430   
    377. D(C  41,N  28,Co  0,O  27)   -103.9899         0.005430   
    378. D(C  38,N  28,N   7,C   6)     40.0738         0.001500   
    379. D(C  41,N  28,Co  0,C  35)    115.3509         0.005430   
    380. D(C  35,N  28,Co  0,O  25)    -37.3449         0.005430   
    381. D(C  41,N  28,N   7,C   6)    -79.2061         0.001500   
    382. D(C  35,N  28,Co  0,C  32)   -124.4922         0.005430   
    383. D(C  38,N  28,N   7,C   4)   -146.1165         0.001500   
    384. D(C  35,N  28,Co  0,C  34)    139.0865         0.005430   
    385. D(C  38,N  28,Co  0,C  33)   -146.8048         0.005430   
    386. D(C  35,N  28,Co  0,C  38)    125.0467         0.005430   
    387. D(C  38,N  28,Co  0,N  17)    -77.2786         0.005430   
    388. D(C  38,N  28,Co  0,O  26)    104.7529         0.005430   
    389. D(C  38,N  28,Co  0,C  34)     14.0399         0.005430   
    390. D(C  41,N  28,Co  0,N  17)    163.1190         0.005430   
    391. D(C  41,N  28,Co  0,O  25)     78.0061         0.005430   
    392. D(C  38,N  28,Co  0,C  32)    110.4611         0.005430   
    393. D(C  41,N  28,Co  0,O  26)    -14.8495         0.005430   
    394. D(C  35,N  28,Co  0,O  26)   -130.2004         0.005430   
    395. D(C  38,N  28,Co  0,O  25)   -162.3915         0.005430   
    396. D(C  41,N  28,Co  0,C  33)     93.5928         0.005430   
    397. D(C  35,N  28,Co  0,N  17)     47.7681         0.005430   
    398. D(C  35,N  28,Co  0,C  41)   -115.3509         0.005430   
    399. D(C  35,N  28,N   7,C   4)    -20.4819         0.001500   
    400. D(C  35,N  28,N   7,C   6)    165.7084         0.001500   
    401. D(C  38,N  28,Co  0,O  27)     15.6125         0.005430   
    402. D(C  38,N  28,Co  0,C  41)    119.6024         0.005430   
    403. D(C  41,N  28,N   7,C   4)     94.6036         0.001500   
    404. D(C  38,N  28,Co  0,C  35)   -125.0467         0.005430   
    405. D(C  41,N  28,Co  0,C  34)   -105.5625         0.005430   
    406. D(C  35,N  28,Co  0,O  27)    140.6592         0.005430   
    407. D(C  35,N  28,Co  0,C  33)    -21.7581         0.005430   
    408. D(C  41,N  28,Co  0,C  32)     -9.1413         0.005430   
    409. D(C  41,C  32,Co  0,O  25)    -79.7236         0.001522   
    410. D(C  41,C  32,Co  0,O  27)     95.7775         0.001522   
    411. D(C  41,C  32,Co  0,O  26)    175.9761         0.001522   
    412. D(C  41,C  32,Co  0,C  35)    -17.1943         0.001522   
    413. D(C  41,C  32,Co  0,N   7)   -170.5358         0.001522   
    414. D(O  30,C  32,Co  0,N  28)    174.6028         0.001522   
    415. D(O  26,C  32,Co  0,N  28)   -166.9509         0.001522   
    416. D(O  30,C  32,Co  0,O  26)    -18.4462         0.001522   
    417. D(C  41,C  32,O  26,Co  0)     -4.4156         0.041833   
    418. D(O  26,C  32,Co  0,C  34)   -105.3179         0.001522   
    419. D(O  26,C  32,Co  0,C  35)    166.8296         0.001522   
    420. D(O  30,C  32,Co  0,N  17)    157.1731         0.001522   
    421. D(O  30,C  32,Co  0,N   7)     -4.9581         0.001522   
    422. D(O  30,C  32,Co  0,O  27)    -98.6448         0.001522   
    423. D(O  30,C  32,Co  0,C  35)    148.3834         0.001522   
    424. D(O  30,C  32,Co  0,C  38)   -155.8753         0.001522   
    425. D(O  26,C  32,Co  0,N  17)    175.6193         0.001522   
    426. D(O  30,C  32,Co  0,C  34)   -123.7641         0.001522   
    427. D(O  30,C  32,Co  0,C  41)    165.5777         0.001522   
    428. D(C  41,C  32,Co  0,N  17)     -8.4046         0.001522   
    429. D(O  30,C  32,Co  0,O  25)     85.8541         0.001522   
    430. D(C  41,C  32,Co  0,N  28)      9.0252         0.001522   
    431. D(C  41,C  32,Co  0,C  33)    -50.1940         0.001522   
    432. D(O  26,C  32,Co  0,C  38)   -137.4290         0.001522   
    433. D(C  41,C  32,Co  0,C  34)     70.6582         0.001522   
    434. D(C  41,C  32,Co  0,C  38)     38.5470         0.001522   
    435. D(O  26,C  32,Co  0,C  41)   -175.9761         0.001522   
    436. D(O  26,C  32,Co  0,C  33)    133.8299         0.001522   
    437. D(O  26,C  32,Co  0,N   7)     13.4881         0.001522   
    438. D(O  30,C  32,O  26,Co  0)    171.7964         0.041833   
    439. D(O  26,C  32,Co  0,O  27)    -80.1986         0.001522   
    440. D(O  30,C  32,Co  0,C  33)    115.3837         0.001522   
    441. D(O  26,C  32,Co  0,O  25)    104.3003         0.001522   
    442. D(C  35,C  33,O  25,Co  0)    -13.2553         0.032175   
    443. D(O  31,C  33,Co  0,C  38)    152.5936         0.001541   
    444. D(C  35,C  33,Co  0,N  17)    -82.4996         0.001541   
    445. D(C  35,C  33,Co  0,C  34)      1.7061         0.001541   
    446. D(O  31,C  33,Co  0,C  41)   -158.1518         0.001541   
    447. D(O  25,C  33,Co  0,N   7)     30.4360         0.001541   
    448. D(O  31,C  33,Co  0,N  28)    168.7056         0.001541   
    449. D(O  31,C  33,Co  0,O  25)    -44.3561         0.001541   
    450. D(O  25,C  33,Co  0,C  32)    -88.5690         0.001541   
    451. D(O  25,C  33,Co  0,C  34)   -166.2463         0.001541   
    452. D(O  25,C  33,Co  0,C  38)   -163.0503         0.001541   
    453. D(O  31,C  33,Co  0,N  17)     65.1920         0.001541   
    454. D(O  31,C  33,Co  0,C  32)   -132.9251         0.001541   
    455. D(O  31,C  33,Co  0,C  34)    149.3976         0.001541   
    456. D(O  31,C  33,Co  0,C  35)    147.6915         0.001541   
    457. D(O  31,C  33,Co  0,O  26)   -113.8388         0.001541   
    458. D(C  35,C  33,Co  0,N   7)   -161.6116         0.001541   
    459. D(C  35,C  33,Co  0,O  27)    -11.7227         0.001541   
    460. D(O  25,C  33,Co  0,C  41)   -113.7957         0.001541   
    461. D(C  35,C  33,Co  0,N  28)     21.0141         0.001541   
    462. D(C  35,C  33,Co  0,C  32)     79.3833         0.001541   
    463. D(O  31,C  33,Co  0,N   7)    -13.9201         0.001541   
    464. D(C  35,C  33,Co  0,C  38)      4.9021         0.001541   
    465. D(C  35,C  33,Co  0,C  41)     54.1567         0.001541   
    466. D(O  25,C  33,Co  0,C  35)   -167.9524         0.001541   
    467. D(O  31,C  33,O  25,Co  0)    161.4172         0.032175   
    468. D(O  25,C  33,Co  0,O  27)   -179.6751         0.001541   
    469. D(C  35,C  33,Co  0,O  25)    167.9524         0.001541   
    470. D(O  25,C  33,Co  0,N  17)    109.5481         0.001541   
    471. D(O  25,C  33,Co  0,O  26)    -69.4827         0.001541   
    472. D(O  25,C  33,Co  0,N  28)   -146.9383         0.001541   
    473. D(C  35,C  33,Co  0,O  26)     98.4697         0.001541   
    474. D(O  31,C  33,Co  0,O  27)    135.9688         0.001541   
    475. D(O  29,C  34,Co  0,N  28)   -177.3126         0.001528   
    476. D(O  27,C  34,Co  0,N  17)    -90.6646         0.001528   
    477. D(O  27,C  34,Co  0,O  25)   -176.6464         0.001528   
    478. D(O  29,C  34,Co  0,N  17)    -84.6256         0.001528   
    479. D(O  27,C  34,Co  0,N  28)    176.6483         0.001528   
    480. D(O  27,C  34,Co  0,C  32)    115.5073         0.001528   
    481. D(O  27,C  34,Co  0,C  33)   -163.9571         0.001528   
    482. D(O  27,C  34,Co  0,C  35)   -163.0216         0.001528   
    483. D(O  27,C  34,Co  0,C  38)   -169.9770         0.001528   
    484. D(O  27,C  34,Co  0,C  41)    145.9413         0.001528   
    485. D(O  27,C  34,Co  0,O  26)     90.4215         0.001528   
    486. D(O  29,C  34,Co  0,N   7)      5.2366         0.001528   
    487. D(O  29,C  34,Co  0,O  25)   -170.6074         0.001528   
    488. D(O  29,C  34,Co  0,O  26)     96.4605         0.001528   
    489. D(O  27,C  34,Co  0,N   7)     -0.8024         0.001528   
    490. D(O  29,C  34,Co  0,O  27)      6.0390         0.001528   
    491. D(O  29,C  34,Co  0,C  32)    121.5463         0.001528   
    492. D(O  29,C  34,O  27,Co  0)   -177.5147         0.033222   
    493. D(O  29,C  34,Co  0,C  35)   -156.9826         0.001528   
    494. D(O  29,C  34,Co  0,C  38)   -163.9380         0.001528   
    495. D(O  29,C  34,Co  0,C  41)    151.9804         0.001528   
    496. D(C  38,C  34,Co  0,N   7)    169.1746         0.001528   
    497. D(C  38,C  34,Co  0,N  17)     79.3124         0.001528   
    498. D(C  38,C  34,Co  0,O  25)     -6.6694         0.001528   
    499. D(C  38,C  34,Co  0,O  26)    -99.6015         0.001528   
    500. D(C  38,C  34,Co  0,O  27)    169.9770         0.001528   
    501. D(C  38,C  34,Co  0,N  28)    -13.3747         0.001528   
    502. D(C  38,C  34,Co  0,C  32)    -74.5157         0.001528   
    503. D(C  38,C  34,Co  0,C  33)      6.0199         0.001528   
    504. D(C  38,C  34,Co  0,C  35)      6.9554         0.001528   
    505. D(O  29,C  34,Co  0,C  33)   -157.9180         0.001528   
    506. D(C  38,C  34,Co  0,C  41)    -44.0817         0.001528   
    507. D(C  38,C  34,O  27,Co  0)    -11.0481         0.033222   
    508. D(N  28,C  35,Co  0,N   7)    175.9352         0.001520   
    509. D(H  37,C  35,C  33,O  25)   -137.6242         0.012666   
    510. D(N  28,C  35,Co  0,O  25)    136.8130         0.001520   
    511. D(N  28,C  35,Co  0,O  26)     52.6077         0.001520   
    512. D(H  36,C  35,C  33,Co  0)     95.8660         0.012666   
    513. D(N  28,C  35,Co  0,C  32)     46.6148         0.001520   
    514. D(N  28,C  35,Co  0,C  33)    143.4733         0.001520   
    515. D(Co  0,C  35,C  33,O  31)   -165.7725         0.012666   
    516. D(N  28,C  35,Co  0,C  38)    -30.5234         0.001520   
    517. D(N  28,C  35,Co  0,C  41)     35.5181         0.001520   
    518. D(C  33,C  35,Co  0,N   7)     32.4619         0.001520   
    519. D(C  33,C  35,Co  0,N  17)     87.2610         0.001520   
    520. D(C  33,C  35,Co  0,O  25)     -6.6604         0.001520   
    521. D(C  33,C  35,Co  0,O  26)    -90.8657         0.001520   
    522. D(C  33,C  35,N  28,C  41)    -80.0938         0.016006   
    523. D(C  33,C  35,Co  0,N  28)   -143.4733         0.001520   
    524. D(C  33,C  35,Co  0,C  32)    -96.8585         0.001520   
    525. D(Co  0,C  35,N  28,C  38)    118.7562         0.016006   
    526. D(C  33,C  35,Co  0,C  38)   -173.9968         0.001520   
    527. D(C  33,C  35,Co  0,C  41)   -107.9552         0.001520   
    528. D(H  37,C  35,Co  0,C  33)     98.7498         0.001520   
    529. D(H  36,C  35,Co  0,N  17)    -18.3107         0.001520   
    530. D(H  36,C  35,Co  0,O  25)   -112.2321         0.001520   
    531. D(H  36,C  35,Co  0,O  26)    163.5626         0.001520   
    532. D(H  36,C  35,Co  0,O  27)     67.3333         0.001520   
    533. D(H  36,C  35,Co  0,N  28)    110.9549         0.001520   
    534. D(H  36,C  35,Co  0,C  32)    157.5697         0.001520   
    535. D(H  36,C  35,Co  0,C  33)   -105.5718         0.001520   
    536. D(H  36,C  35,Co  0,C  34)     75.9125         0.001520   
    537. D(H  36,C  35,Co  0,C  38)     80.4315         0.001520   
    538. D(H  36,C  35,Co  0,C  41)    146.4730         0.001520   
    539. D(H  37,C  35,Co  0,N   7)    131.2117         0.001520   
    540. D(H  37,C  35,Co  0,N  17)   -173.9892         0.001520   
    541. D(H  37,C  35,Co  0,O  25)     92.0894         0.001520   
    542. D(H  37,C  35,Co  0,O  26)      7.8841         0.001520   
    543. D(H  37,C  35,Co  0,O  27)    -88.3451         0.001520   
    544. D(H  37,C  35,Co  0,N  28)    -44.7236         0.001520   
    545. D(H  36,C  35,Co  0,N   7)    -73.1099         0.001520   
    546. D(H  37,C  35,Co  0,C  32)      1.8913         0.001520   
    547. D(H  37,C  35,Co  0,C  34)    -79.7659         0.001520   
    548. D(H  37,C  35,Co  0,C  38)    -75.2470         0.001520   
    549. D(C  33,C  35,Co  0,C  34)   -178.5157         0.001520   
    550. D(H  37,C  35,Co  0,C  41)     -9.2054         0.001520   
    551. D(Co  0,C  35,N  28,C  41)   -115.5101         0.016006   
    552. D(C  33,C  35,N  28,Co  0)     35.4163         0.016006   
    553. D(C  33,C  35,Co  0,O  27)    172.9051         0.001520   
    554. D(C  33,C  35,N  28,C  38)    154.1725         0.016006   
    555. D(H  36,C  35,N  28,Co  0)    -83.1460         0.016006   
    556. D(H  36,C  35,N  28,C  38)     35.6102         0.016006   
    557. D(H  36,C  35,N  28,C  41)    161.3439         0.016006   
    558. D(H  37,C  35,N  28,Co  0)    157.0330         0.016006   
    559. D(H  37,C  35,N  28,C  38)    -84.2108         0.016006   
    560. D(H  37,C  35,N  28,C  41)     41.5230         0.016006   
    561. D(N  28,C  35,Co  0,C  34)    -35.0424         0.001520   
    562. D(Co  0,C  35,C  33,O  25)      8.8530         0.012666   
    563. D(N  28,C  35,C  33,Co  0)    -25.5835         0.012666   
    564. D(N  28,C  35,C  33,O  25)    -16.7305         0.012666   
    565. D(N  28,C  35,Co  0,O  27)    -43.6216         0.001520   
    566. D(N  28,C  35,C  33,O  31)    168.6440         0.012666   
    567. D(H  36,C  35,C  33,O  25)    104.7190         0.012666   
    568. D(H  36,C  35,C  33,O  31)    -69.9065         0.012666   
    569. D(N  28,C  35,Co  0,N  17)   -129.2656         0.001520   
    570. D(H  37,C  35,C  33,Co  0)   -146.4772         0.012666   
    571. D(H  37,C  35,C  33,O  31)     47.7503         0.012666   
    572. D(N  28,C  38,Co  0,N   7)   -175.9247         0.001512   
    573. D(H  40,C  38,C  34,O  27)    -98.4111         0.013822   
    574. D(N  28,C  38,Co  0,O  25)     19.6173         0.001512   
    575. D(N  28,C  38,Co  0,O  26)    -75.2692         0.001512   
    576. D(H  39,C  38,C  34,Co  0)    140.4207         0.013822   
    577. D(N  28,C  38,Co  0,C  32)    -57.9294         0.001512   
    578. D(N  28,C  38,Co  0,C  33)     28.7870         0.001512   
    579. D(Co  0,C  38,C  34,O  29)    173.3983         0.013822   
    580. D(N  28,C  38,Co  0,C  35)     32.0713         0.001512   
    581. D(N  28,C  38,Co  0,C  41)    -33.9894         0.001512   
    582. D(C  34,C  38,Co  0,N   7)    -19.4820         0.001512   
    583. D(C  34,C  38,Co  0,N  17)   -100.6536         0.001512   
    584. D(C  34,C  38,Co  0,O  25)    176.0600         0.001512   
    585. D(C  34,C  38,Co  0,O  26)     81.1735         0.001512   
    586. D(C  34,C  38,N  28,C  41)     95.5110         0.015543   
    587. D(C  34,C  38,Co  0,N  28)    156.4427         0.001512   
    588. D(C  34,C  38,Co  0,C  32)     98.5133         0.001512   
    589. D(Co  0,C  38,N  28,C  35)   -116.5624         0.015543   
    590. D(C  34,C  38,Co  0,C  35)   -171.4860         0.001512   
    591. D(C  34,C  38,Co  0,C  41)    122.4533         0.001512   
    592. D(H  40,C  38,Co  0,C  33)    -71.6856         0.001512   
    593. D(H  39,C  38,Co  0,N  17)    162.0746         0.001512   
    594. D(H  39,C  38,Co  0,O  25)     78.7881         0.001512   
    595. D(H  39,C  38,Co  0,O  26)    -16.0983         0.001512   
    596. D(H  39,C  38,Co  0,O  27)   -102.6938         0.001512   
    597. D(H  39,C  38,Co  0,N  28)     59.1709         0.001512   
    598. D(H  39,C  38,Co  0,C  32)      1.2415         0.001512   
    599. D(H  39,C  38,Co  0,C  33)     87.9579         0.001512   
    600. D(H  39,C  38,Co  0,C  34)    -97.2718         0.001512   
    601. D(H  39,C  38,Co  0,C  35)     91.2422         0.001512   
    602. D(H  39,C  38,Co  0,C  41)     25.1815         0.001512   
    603. D(H  40,C  38,Co  0,N   7)     83.6027         0.001512   
    604. D(H  40,C  38,Co  0,N  17)      2.4311         0.001512   
    605. D(H  40,C  38,Co  0,O  25)    -80.8553         0.001512   
    606. D(H  40,C  38,Co  0,O  26)   -175.7417         0.001512   
    607. D(H  40,C  38,Co  0,O  27)     97.6628         0.001512   
    608. D(H  40,C  38,Co  0,N  28)   -100.4725         0.001512   
    609. D(H  39,C  38,Co  0,N   7)   -116.7539         0.001512   
    610. D(H  40,C  38,Co  0,C  32)   -158.4019         0.001512   
    611. D(H  40,C  38,Co  0,C  34)    103.0847         0.001512   
    612. D(H  40,C  38,Co  0,C  35)    -68.4012         0.001512   
    613. D(C  34,C  38,Co  0,C  33)   -174.7703         0.001512   
    614. D(H  40,C  38,Co  0,C  41)   -134.4619         0.001512   
    615. D(Co  0,C  38,N  28,C  41)    118.5996         0.015543   
    616. D(C  34,C  38,N  28,Co  0)    -23.0886         0.015543   
    617. D(C  34,C  38,Co  0,O  27)     -5.4220         0.001512   
    618. D(C  34,C  38,N  28,C  35)   -139.6510         0.015543   
    619. D(H  39,C  38,N  28,Co  0)   -145.9192         0.015543   
    620. D(H  39,C  38,N  28,C  35)     97.5184         0.015543   
    621. D(H  39,C  38,N  28,C  41)    -27.3197         0.015543   
    622. D(H  40,C  38,N  28,Co  0)     96.5868         0.015543   
    623. D(H  40,C  38,N  28,C  35)    -19.9756         0.015543   
    624. D(H  40,C  38,N  28,C  41)   -144.8137         0.015543   
    625. D(N  28,C  38,Co  0,C  34)   -156.4427         0.001512   
    626. D(Co  0,C  38,C  34,O  27)      7.0438         0.013822   
    627. D(N  28,C  38,C  34,Co  0)     16.2195         0.013822   
    628. D(N  28,C  38,C  34,O  27)     23.2633         0.013822   
    629. D(N  28,C  38,Co  0,O  27)   -161.8647         0.001512   
    630. D(N  28,C  38,C  34,O  29)   -170.3823         0.013822   
    631. D(H  39,C  38,C  34,O  27)    147.4645         0.013822   
    632. D(H  39,C  38,C  34,O  29)    -46.1810         0.013822   
    633. D(N  28,C  38,Co  0,N  17)    102.9037         0.001512   
    634. D(H  40,C  38,C  34,Co  0)   -105.4549         0.013822   
    635. D(H  40,C  38,C  34,O  29)     67.9433         0.013822   
    636. D(N  28,C  41,Co  0,N   7)   -179.9550         0.001510   
    637. D(H  43,C  41,C  32,O  26)   -132.6255         0.018528   
    638. D(N  28,C  41,Co  0,O  25)    -98.8548         0.001510   
    639. D(N  28,C  41,Co  0,O  26)    162.2194         0.001510   
    640. D(H  42,C  41,C  32,Co  0)    111.2356         0.018528   
    641. D(N  28,C  41,Co  0,C  32)    164.3302         0.001510   
    642. D(N  28,C  41,Co  0,C  33)    -71.7751         0.001510   
    643. D(Co  0,C  41,C  32,O  30)   -173.4697         0.018528   
    644. D(N  28,C  41,Co  0,C  35)    -37.4521         0.001510   
    645. D(N  28,C  41,Co  0,C  38)     34.0360         0.001510   
    646. D(C  32,C  41,Co  0,N   7)     15.7148         0.001510   
    647. D(C  32,C  41,Co  0,N  17)    175.5313         0.001510   
    648. D(C  32,C  41,Co  0,O  25)     96.8150         0.001510   
    649. D(C  32,C  41,Co  0,O  26)     -2.1109         0.001510   
    650. D(C  32,C  41,N  28,C  38)   -102.5027         0.013124   
    651. D(C  32,C  41,Co  0,N  28)   -164.3302         0.001510   
    652. D(C  32,C  41,Co  0,C  33)    123.8947         0.001510   
    653. D(Co  0,C  41,N  28,C  35)    112.2481         0.013124   
    654. D(C  32,C  41,Co  0,C  35)    158.2176         0.001510   
    655. D(C  32,C  41,Co  0,C  38)   -130.2942         0.001510   
    656. D(H  43,C  41,Co  0,C  33)   -138.9792         0.001510   
    657. D(H  42,C  41,Co  0,N  17)     77.7118         0.001510   
    658. D(H  42,C  41,Co  0,O  25)     -1.0046         0.001510   
    659. D(H  42,C  41,Co  0,O  26)    -99.9304         0.001510   
    660. D(H  42,C  41,Co  0,O  27)    175.2299         0.001510   
    661. D(H  42,C  41,Co  0,N  28)     97.8502         0.001510   
    662. D(H  42,C  41,Co  0,C  32)    -97.8195         0.001510   
    663. D(H  42,C  41,Co  0,C  33)     26.0751         0.001510   
    664. D(H  42,C  41,Co  0,C  34)    159.8995         0.001510   
    665. D(H  42,C  41,Co  0,C  35)     60.3981         0.001510   
    666. D(H  42,C  41,Co  0,C  38)    131.8862         0.001510   
    667. D(H  43,C  41,Co  0,N   7)    112.8409         0.001510   
    668. D(H  43,C  41,Co  0,N  17)    -87.3426         0.001510   
    669. D(H  43,C  41,Co  0,O  25)   -166.0589         0.001510   
    670. D(H  43,C  41,Co  0,O  26)     95.0152         0.001510   
    671. D(H  43,C  41,Co  0,O  27)     10.1756         0.001510   
    672. D(H  43,C  41,Co  0,N  28)    -67.2042         0.001510   
    673. D(H  42,C  41,Co  0,N   7)    -82.1048         0.001510   
    674. D(H  43,C  41,Co  0,C  32)     97.1261         0.001510   
    675. D(H  43,C  41,Co  0,C  34)     -5.1549         0.001510   
    676. D(H  43,C  41,Co  0,C  35)   -104.6563         0.001510   
    677. D(C  32,C  41,Co  0,C  34)   -102.2810         0.001510   
    678. D(H  43,C  41,Co  0,C  38)    -33.1681         0.001510   
    679. D(Co  0,C  41,N  28,C  38)   -118.0531         0.013124   
    680. D(C  32,C  41,N  28,Co  0)     15.5504         0.013124   
    681. D(C  32,C  41,Co  0,O  27)    -86.9505         0.001510   
    682. D(C  32,C  41,N  28,C  35)    127.7985         0.013124   
    683. D(H  42,C  41,N  28,Co  0)   -101.3287         0.013124   
    684. D(H  42,C  41,N  28,C  35)     10.9193         0.013124   
    685. D(H  42,C  41,N  28,C  38)    140.6182         0.013124   
    686. D(H  43,C  41,N  28,Co  0)    137.9884         0.013124   
    687. D(H  43,C  41,N  28,C  35)   -109.7635         0.013124   
    688. D(H  43,C  41,N  28,C  38)     19.9354         0.013124   
    689. D(N  28,C  41,Co  0,C  34)     62.0493         0.001510   
    690. D(Co  0,C  41,C  32,O  26)      2.6947         0.018528   
    691. D(N  28,C  41,C  32,Co  0)    -10.7853         0.018528   
    692. D(N  28,C  41,C  32,O  26)     -8.0906         0.018528   
    693. D(N  28,C  41,Co  0,O  27)     77.3797         0.001510   
    694. D(N  28,C  41,C  32,O  30)    175.7450         0.018528   
    695. D(H  42,C  41,C  32,O  26)    113.9303         0.018528   
    696. D(H  42,C  41,C  32,O  30)    -62.2341         0.018528   
    697. D(N  28,C  41,Co  0,N  17)    -20.1384         0.001510   
    698. D(H  43,C  41,C  32,Co  0)   -135.3202         0.018528   
    699. D(H  43,C  41,C  32,O  30)     51.2101         0.018528   
    700. C_1(Co  0)                      1.6900         1.000000 C 
    701. C_0(Co  0)                     -6.4280         1.000000 C 
    702. C_2(Co  0)                    -12.0160         1.000000 C 
    703. C_2(C   1)                     -8.1690         1.000000 C 
    704. C_0(C   1)                     -1.6330         1.000000 C 
    705. C_1(C   1)                      1.7470         1.000000 C 
    706. C_2(C  13)                     -5.9850         1.000000 C 
    707. C_1(C  13)                     -0.9350         1.000000 C 
    708. C_0(C  13)                     -6.8160         1.000000 C 
    -----------------------------------------------------------------

Number of atoms                         .... 50
Number of degrees of freedom            .... 708

         *************************************************************
         *                GEOMETRY OPTIMIZATION CYCLE   1            *
         *************************************************************
---------------------------------
CARTESIAN COORDINATES (ANGSTROEM)
---------------------------------
  Co    -6.428000    1.690000  -12.016000
  C     -1.633000    1.747000   -8.169000
  C     -1.417220    1.153350   -9.579260
  C     -2.592300    1.097800  -10.565270
  C     -3.862690    1.491040  -10.428970
  N     -2.427770    0.573270  -11.867200
  C     -3.673840    0.645130  -12.589140
  N     -4.581640    1.232660  -11.636650
  H     -1.048110    0.113790   -9.448560
  H     -0.610410    1.742910  -10.064430
  H     -1.545480    0.204560  -12.250360
  H     -4.290250    1.939610   -9.542590
  H     -3.564390    1.306550  -13.473760
  C     -6.816000   -0.935000   -5.985000
  C     -6.582930    0.026760   -7.459810
  C     -7.073770   -0.309700   -9.034000
  C     -7.740440   -1.516270   -9.026850
  N     -7.058360    0.170670  -10.457520
  C     -7.682310   -0.878320  -11.069110
  N     -8.099510   -1.850020  -10.254750
  H     -5.483530    0.160400   -7.534240
  H     -7.016010    1.021850   -7.228660
  H     -7.941880   -2.142440   -8.167400
  H     -7.856210   -0.996560  -12.102270
  H     -8.601510   -2.721410  -10.535800
  O     -6.493760    2.886640  -10.662090
  O     -5.925660    2.949400  -13.215960
  O     -6.503310    0.480470  -13.361070
  N     -8.256110    2.215020  -12.430940
  O     -7.925230   -0.371240  -14.859490
  O     -6.582780    4.751210  -14.330790
  O     -8.017690    3.492030   -9.132590
  C     -6.862820    3.784940  -13.639970
  C     -7.774190    3.014850  -10.228490
  C     -7.714200    0.430960  -13.964670
  C     -8.870080    2.429900  -11.104560
  H     -9.229250    1.490050  -10.637900
  H     -9.749570    3.109180  -11.180490
  C     -8.846800    1.162200  -13.289400
  H     -9.561970    1.562460  -14.039970
  H     -9.443990    0.434410  -12.703390
  C     -8.227020    3.529730  -13.162360
  H     -8.477310    4.402300  -12.515800
  H     -8.936110    3.571030  -14.016700
  H     -7.901300   -1.058820   -5.790680
  H     -6.345780   -0.415950   -5.124360
  H     -6.346860   -1.932210   -6.113350
  H     -2.407510    1.162640   -7.628850
  H     -1.966070    2.802930   -8.251810
  H     -0.683840    1.710110   -7.593840

----------------------------
CARTESIAN COORDINATES (A.U.)
----------------------------
  NO LB      ZA    FRAG     MASS         X           Y           Z
   0 Co   27.0000    0    58.930  -12.147160    3.193637  -22.706949
   1 C     6.0000    0    12.011   -3.085923    3.301352  -15.437173
   2 C     6.0000    0    12.011   -2.678158    2.179516  -18.102178
   3 C     6.0000    0    12.011   -4.898737    2.074541  -19.965467
   4 C     6.0000    0    12.011   -7.299426    2.817657  -19.707897
   5 N     7.0000    0    14.007   -4.587820    1.083323  -22.425758
   6 C     6.0000    0    12.011   -6.942551    1.219119  -23.790027
   7 N     7.0000    0    14.007   -8.658045    2.329390  -21.990082
   8 H     1.0000    0     1.008   -1.980641    0.215032  -17.855191
   9 H     1.0000    0     1.008   -1.153508    3.293623  -19.019016
  10 H     1.0000    0     1.008   -2.920534    0.386562  -23.149825
  11 H     1.0000    0     1.008   -8.107398    3.665332  -18.032882
  12 H     1.0000    0     1.008   -6.735721    2.469022  -25.461716
  13 C     6.0000    0    12.011  -12.880373   -1.766894  -11.310011
  14 C     6.0000    0    12.011  -12.439935    0.050569  -14.096998
  15 C     6.0000    0    12.011  -13.367488   -0.585248  -17.071786
  16 C     6.0000    0    12.011  -14.627312   -2.865335  -17.058274
  17 N     7.0000    0    14.007  -13.338367    0.322520  -19.761849
  18 C     6.0000    0    12.011  -14.517462   -1.659784  -20.917586
  19 N     7.0000    0    14.007  -15.305856   -3.496031  -19.378669
  20 H     1.0000    0     1.008  -10.362370    0.303112  -14.237650
  21 H     1.0000    0     1.008  -13.258337    1.931017  -13.660188
  22 H     1.0000    0     1.008  -15.007978   -4.048625  -15.434149
  23 H     1.0000    0     1.008  -14.846085   -1.883225  -22.869976
  24 H     1.0000    0     1.008  -16.254498   -5.142720  -19.909777
  25 O     8.0000    0    15.999  -12.271428    5.454959  -20.148430
  26 O     8.0000    0    15.999  -11.197875    5.573558  -24.974545
  27 O     8.0000    0    15.999  -12.289475    0.907957  -25.248763
  28 N     7.0000    0    14.007  -15.601787    4.185781  -23.491072
  29 O     8.0000    0    15.999  -14.976514   -0.701542  -28.080367
  30 O     8.0000    0    15.999  -12.439651    8.978486  -27.081268
  31 O     8.0000    0    15.999  -15.151238    6.598980  -17.258094
  32 C     6.0000    0    12.011  -12.968850    7.152500  -25.775808
  33 C     6.0000    0    12.011  -14.691090    5.697241  -19.329045
  34 C     6.0000    0    12.011  -14.577725    0.814396  -26.389402
  35 C     6.0000    0    12.011  -16.762022    4.591846  -20.984577
  36 H     1.0000    0     1.008  -17.440755    2.815786  -20.102718
  37 H     1.0000    0     1.008  -18.424017    5.875499  -21.128064
  38 C     6.0000    0    12.011  -16.718029    2.196240  -25.113326
  39 H     1.0000    0     1.008  -18.069505    2.952621  -26.531698
  40 H     1.0000    0     1.008  -17.846555    0.820916  -24.005928
  41 C     6.0000    0    12.011  -15.546815    6.670223  -24.873256
  42 H     1.0000    0     1.008  -16.019794    8.319141  -23.651434
  43 H     1.0000    0     1.008  -16.886801    6.748269  -26.487724
  44 H     1.0000    0     1.008  -14.931293   -2.000880  -10.942799
  45 H     1.0000    0     1.008  -11.991786   -0.786032   -9.683637
  46 H     1.0000    0     1.008  -11.993827   -3.651348  -11.552557
  47 H     1.0000    0     1.008   -4.549535    2.197071  -14.416437
  48 H     1.0000    0     1.008   -3.715334    5.296770  -15.593661
  49 H     1.0000    0     1.008   -1.292270    3.231640  -14.350278

--------------------------------
INTERNAL COORDINATES (ANGSTROEM)
--------------------------------
 Co     0   0   0     0.000000000000     0.00000000     0.00000000
 C      1   0   0     6.147738039312     0.00000000     0.00000000
 C      2   1   0     1.545255512367    62.24191567     0.00000000
 C      3   2   1     1.534964015539   119.55451822   359.01964907
 C      4   3   2     1.336826892197   130.64398974   359.85004261
 N      4   3   2     1.413231604055   121.06986236   179.39441920
 C      6   4   3     1.441891697771   110.00787175   180.42862117
 N      5   4   3     1.429034747408   109.80061490   179.86518559
 H      3   2   1     1.110859881218   107.36985777   236.74352358
 H      3   2   1     1.110816500868   107.22570273   121.05610553
 H      6   4   3     1.030142851162   125.11443160   359.69707206
 H      5   4   3     1.081523047790   125.53854186   359.96022688
 H      7   6   4     1.109958676393   110.09172976   117.46440692
 C     12   5   4     5.224867684707   121.39635957   264.69973709
 C     14  12   5     1.776054182338    22.06269792   274.47746198
 C     15  14  12     1.682915147386   129.06492834   132.79429659
 C     16  15  14     1.378517746095   108.13087868     0.50586486
 N     16  15  14     1.502465305889   145.01810417   181.93113620
 C     18  16  15     1.365187148599   100.02593691   176.21172827
 N     17  16  15     1.322141723644   110.33254887   182.52324005
 H     15  14  12     1.109990916404   104.52812204     9.88866785
 H     15  14  12     1.109591238700   105.15489699   257.34920700
 H     17  16  15     1.082275956030   126.90807282     1.20025685
 H     19  18  16     1.054344105688   126.90879763   182.97355603
 H     20  17  16     1.044180843820   126.24204012   178.81142915
 O      1   2   3     1.808132726129    63.49148121   201.88305645
 O      1   2   3     1.810618081540   101.06191229   289.29680462
 O      1   2   3     1.810482731732   120.23418814    24.74255662
 N      1   2   3     1.946742760639   149.69015042   187.96399585
 O     28   1   2     2.234396765774   141.20110448   166.82016094
 O     27   1   2     2.218371452079   144.66880632   227.77173255
 O     26   1   2     2.242371500666   135.57212660   227.96009447
 C     31  27   1     1.220382065953    30.72827477   347.30287295
 C     32  26   1     1.219831878744    31.34348187   334.60884818
 C     30  28   1     1.220148078431    31.51700278     3.64884986
 C     29   1   2     1.477300402660   103.77638492   335.10377843
 H     36  29   1     1.109095427364   112.89872183   276.85398783
 H     36  29   1     1.113862353884   110.83353789   157.03302907
 C     29   1   2     1.481316374074   107.83668390   210.05712567
 H     39  29   1     1.111319720602   113.08125917   214.08076997
 H     39  29   1     1.108928266526   112.02120068    96.58675464
 C     33  31  27     1.467748308192   122.35434424   175.98066084
 H     42  33  31     1.114478946683   105.15202711   297.76587941
 H     42  33  31     1.111040572481   109.66449186    51.21006846
 H     14  12   5     1.109489857908   130.80787410   257.16627099
 H     14  12   5     1.109603965611    93.77875090   137.48709244
 H     14  12   5     1.109501620639   102.19993061    26.77696238
 H      2   1  26     1.110452327748    75.84787160    80.01492461
 H      2   1  26     1.110306843129    74.22702699   325.04107299
 H      2   1  26     1.110438923714   172.09153543   209.35336284

---------------------------
INTERNAL COORDINATES (A.U.)
---------------------------
 Co     0   0   0     0.000000000000     0.00000000     0.00000000
 C      1   0   0    11.617541237389     0.00000000     0.00000000
 C      2   1   0     2.920109725305    62.24191567     0.00000000
 C      3   2   1     2.900661614793   119.55451822   359.01964907
 C      4   3   2     2.526236714713   130.64398974   359.85004261
 N      4   3   2     2.670620695466   121.06986236   179.39441920
 C      6   4   3     2.724780423561   110.00787175   180.42862117
 N      5   4   3     2.700484308459   109.80061490   179.86518559
 H      3   2   1     2.099220948663   107.36985777   236.74352358
 H      3   2   1     2.099138971681   107.22570273   121.05610553
 H      6   4   3     1.946687867513   125.11443160   359.69707206
 H      5   4   3     2.043782367846   125.53854186   359.96022688
 H      7   6   4     2.097517918352   110.09172976   117.46440692
 C     12   5   4     9.873569010072   121.39635957   264.69973709
 C     14  12   5     3.356256003624    22.06269792   274.47746198
 C     15  14  12     3.180248735187   129.06492834   132.79429659
 C     16  15  14     2.605021010871   108.13087868     0.50586486
 N     16  15  14     2.839247953848   145.01810417   181.93113620
 C     18  16  15     2.579829832401   100.02593691   176.21172827
 N     17  16  15     2.498485767918   110.33254887   182.52324005
 H     15  14  12     2.097578843144   104.52812204     9.88866785
 H     15  14  12     2.096823561742   105.15489699   257.34920700
 H     17  16  15     2.045205158224   126.90807282     1.20025685
 H     19  18  16     1.992421610665   126.90879763   182.97355603
 H     20  17  16     1.973215829106   126.24204012   178.81142915
 O      1   2   3     3.416875666165    63.49148121   201.88305645
 O      1   2   3     3.421572307237   101.06191229   289.29680462
 O      1   2   3     3.421316533167   120.23418814    24.74255662
 N      1   2   3     3.678810670801   149.69015042   187.96399585
 O     28   1   2     4.222397961832   141.20110448   166.82016094
 O     27   1   2     4.192114507739   144.66880632   227.77173255
 O     26   1   2     4.237468026769   135.57212660   227.96009447
 C     31  27   1     2.306187883400    30.72827477   347.30287295
 C     32  26   1     2.305148180253    31.34348187   334.60884818
 C     30  28   1     2.305745711066    31.51700278     3.64884986
 C     29   1   2     2.791693178559   103.77638492   335.10377843
 H     36  29   1     2.095886614103   112.89872183   276.85398783
 H     36  29   1     2.104894799726   110.83353789   157.03302907
 C     29   1   2     2.799282264693   107.83668390   210.05712567
 H     39  29   1     2.100089919165   113.08125917   214.08076997
 H     39  29   1     2.095570725898   112.02120068    96.58675464
 C     33  31  27     2.773642336009   122.35434424   175.98066084
 H     42  33  31     2.106059991252   105.15202711   297.76587941
 H     42  33  31     2.099562405665   109.66449186    51.21006846
 H     14  12   5     2.096631979809   130.80787410   257.16627099
 H     14  12   5     2.096847612118    93.77875090   137.48709244
 H     14  12   5     2.096654208149   102.19993061    26.77696238
 H      2   1  26     2.098450784218    75.84787160    80.01492461
 H      2   1  26     2.098175858133    74.22702699   325.04107299
 H      2   1  26     2.098425454266   172.09153543   209.35336284

---------------------
BASIS SET INFORMATION
---------------------
There are 5 groups of distinct atoms

 Group   1 Type Co  : 17s11p7d1f contracted to 6s4p4d1f pattern {842111/6311/4111/1}
 Group   2 Type C   : 7s4p1d contracted to 3s2p1d pattern {511/31/1}
 Group   3 Type N   : 7s4p1d contracted to 3s2p1d pattern {511/31/1}
 Group   4 Type H   : 4s1p contracted to 2s1p pattern {31/1}
 Group   5 Type O   : 7s4p1d contracted to 3s2p1d pattern {511/31/1}

Atom   0Co   basis set group =>   1
Atom   1C    basis set group =>   2
Atom   2C    basis set group =>   2
Atom   3C    basis set group =>   2
Atom   4C    basis set group =>   2
Atom   5N    basis set group =>   3
Atom   6C    basis set group =>   2
Atom   7N    basis set group =>   3
Atom   8H    basis set group =>   4
Atom   9H    basis set group =>   4
Atom  10H    basis set group =>   4
Atom  11H    basis set group =>   4
Atom  12H    basis set group =>   4
Atom  13C    basis set group =>   2
Atom  14C    basis set group =>   2
Atom  15C    basis set group =>   2
Atom  16C    basis set group =>   2
Atom  17N    basis set group =>   3
Atom  18C    basis set group =>   2
Atom  19N    basis set group =>   3
Atom  20H    basis set group =>   4
Atom  21H    basis set group =>   4
Atom  22H    basis set group =>   4
Atom  23H    basis set group =>   4
Atom  24H    basis set group =>   4
Atom  25O    basis set group =>   5
Atom  26O    basis set group =>   5
Atom  27O    basis set group =>   5
Atom  28N    basis set group =>   3
Atom  29O    basis set group =>   5
Atom  30O    basis set group =>   5
Atom  31O    basis set group =>   5
Atom  32C    basis set group =>   2
Atom  33C    basis set group =>   2
Atom  34C    basis set group =>   2
Atom  35C    basis set group =>   2
Atom  36H    basis set group =>   4
Atom  37H    basis set group =>   4
Atom  38C    basis set group =>   2
Atom  39H    basis set group =>   4
Atom  40H    basis set group =>   4
Atom  41C    basis set group =>   2
Atom  42H    basis set group =>   4
Atom  43H    basis set group =>   4
Atom  44H    basis set group =>   4
Atom  45H    basis set group =>   4
Atom  46H    basis set group =>   4
Atom  47H    basis set group =>   4
Atom  48H    basis set group =>   4
Atom  49H    basis set group =>   4
---------------------------------
AUXILIARY/J BASIS SET INFORMATION
---------------------------------
There are 5 groups of distinct atoms

 Group   1 Type Co  : 19s5p5d3f3g contracted to 8s5p5d2f3g pattern {121111111/11111/11111/21/111}
 Group   2 Type C   : 12s5p4d2f1g contracted to 6s4p3d1f1g pattern {711111/2111/211/2/1}
 Group   3 Type N   : 12s5p4d2f1g contracted to 6s4p3d1f1g pattern {711111/2111/211/2/1}
 Group   4 Type H   : 5s2p1d contracted to 3s1p1d pattern {311/2/1}
 Group   5 Type O   : 12s5p4d2f1g contracted to 6s4p3d1f1g pattern {711111/2111/211/2/1}

Atom   0Co   basis set group =>   1
Atom   1C    basis set group =>   2
Atom   2C    basis set group =>   2
Atom   3C    basis set group =>   2
Atom   4C    basis set group =>   2
Atom   5N    basis set group =>   3
Atom   6C    basis set group =>   2
Atom   7N    basis set group =>   3
Atom   8H    basis set group =>   4
Atom   9H    basis set group =>   4
Atom  10H    basis set group =>   4
Atom  11H    basis set group =>   4
Atom  12H    basis set group =>   4
Atom  13C    basis set group =>   2
Atom  14C    basis set group =>   2
Atom  15C    basis set group =>   2
Atom  16C    basis set group =>   2
Atom  17N    basis set group =>   3
Atom  18C    basis set group =>   2
Atom  19N    basis set group =>   3
Atom  20H    basis set group =>   4
Atom  21H    basis set group =>   4
Atom  22H    basis set group =>   4
Atom  23H    basis set group =>   4
Atom  24H    basis set group =>   4
Atom  25O    basis set group =>   5
Atom  26O    basis set group =>   5
Atom  27O    basis set group =>   5
Atom  28N    basis set group =>   3
Atom  29O    basis set group =>   5
Atom  30O    basis set group =>   5
Atom  31O    basis set group =>   5
Atom  32C    basis set group =>   2
Atom  33C    basis set group =>   2
Atom  34C    basis set group =>   2
Atom  35C    basis set group =>   2
Atom  36H    basis set group =>   4
Atom  37H    basis set group =>   4
Atom  38C    basis set group =>   2
Atom  39H    basis set group =>   4
Atom  40H    basis set group =>   4
Atom  41C    basis set group =>   2
Atom  42H    basis set group =>   4
Atom  43H    basis set group =>   4
Atom  44H    basis set group =>   4
Atom  45H    basis set group =>   4
Atom  46H    basis set group =>   4
Atom  47H    basis set group =>   4
Atom  48H    basis set group =>   4
Atom  49H    basis set group =>   4
------------------------------------------------------------------------------
                           ORCA GTO INTEGRAL CALCULATION
                           -- RI-GTO INTEGRALS CHOSEN --
------------------------------------------------------------------------------
------------------------------------------------------------------------------
                   ___                                                        
                  /   \      - P O W E R E D   B Y -                         
                 /     \                                                     
                 |  |  |   _    _      __       _____    __    __             
                 |  |  |  | |  | |    /  \     |  _  \  |  |  /  |          
[...]
      px      :     0.058002
      py      :     0.032490
 11 H s       :     0.883347  s :     0.883347
      pz      :     0.032189  p :     0.072009
      px      :     0.020281
      py      :     0.019538
 12 H s       :     0.871311  s :     0.871311
      pz      :     0.045685  p :     0.072759
      px      :     0.009507
      py      :     0.017568
 13 C s       :     2.854936  s :     2.854936
      pz      :     1.024582  p :     3.154027
      px      :     1.072508
      py      :     1.056937
      dz2     :     0.015703  d :     0.064484
      dxz     :     0.007775
      dyz     :     0.016328
      dx2y2   :     0.011254
      dxy     :     0.013424
 14 C s       :     2.846127  s :     2.846127
      pz      :     1.011871  p :     3.121871
      px      :     1.064573
      py      :     1.045426
      dz2     :     0.022102  d :     0.083369
      dxz     :     0.011913
      dyz     :     0.020359
      dx2y2   :     0.014133
      dxy     :     0.014862
 15 C s       :     2.871600  s :     2.871600
      pz      :     0.975812  p :     3.055181
      px      :     1.038828
      py      :     1.040540
      dz2     :     0.041974  d :     0.129775
      dxz     :     0.019063
      dyz     :     0.035973
      dx2y2   :     0.016227
      dxy     :     0.016538
 16 C s       :     2.875692  s :     2.875692
      pz      :     0.928446  p :     3.067709
      px      :     1.079647
      py      :     1.059616
      dz2     :     0.036338  d :     0.109869
      dxz     :     0.018276
      dyz     :     0.029170
      dx2y2   :     0.014156
      dxy     :     0.011929
 17 N s       :     3.233641  s :     3.233641
      pz      :     1.144524  p :     3.796275
      px      :     1.256990
      py      :     1.394761
      dz2     :     0.012071  d :     0.055560
      dxz     :     0.010290
      dyz     :     0.019654
      dx2y2   :     0.006230
      dxy     :     0.007314
 18 C s       :     2.863309  s :     2.863309
      pz      :     1.019786  p :     2.966316
      px      :     1.004650
      py      :     0.941881
      dz2     :     0.033976  d :     0.152546
      dxz     :     0.016118
      dyz     :     0.046840
      dx2y2   :     0.028611
      dxy     :     0.027000
 19 N s       :     3.049843  s :     3.049843
      pz      :     1.188465  p :     3.784403
      px      :     1.387377
      py      :     1.208561
      dz2     :     0.015606  d :     0.061292
      dxz     :     0.013397
      dyz     :     0.019401
      dx2y2   :     0.006001
      dxy     :     0.006887
 20 H s       :     0.893644  s :     0.893644
      pz      :     0.012184  p :     0.064466
      px      :     0.019323
      py      :     0.032959
 21 H s       :     0.894539  s :     0.894539
      pz      :     0.012555  p :     0.064506
      px      :     0.037396
      py      :     0.014555
 22 H s       :     0.884309  s :     0.884309
      pz      :     0.028686  p :     0.073049
      px      :     0.017542
      py      :     0.026822
 23 H s       :     0.887149  s :     0.887149
      pz      :     0.051649  p :     0.077019
      px      :     0.015062
      py      :     0.010308
 24 H s       :     0.755493  s :     0.755493
      pz      :     0.023165  p :     0.117918
      px      :     0.037049
      py      :     0.057705
 25 O s       :     3.469837  s :     3.469837
      pz      :     1.498839  p :     4.529096
      px      :     1.443107
      py      :     1.587150
      dz2     :     0.003533  d :     0.024034
      dxz     :     0.006601
      dyz     :     0.001762
      dx2y2   :     0.007967
      dxy     :     0.004170
 26 O s       :     3.465576  s :     3.465576
      pz      :     1.475828  p :     4.458393
      px      :     1.497466
      py      :     1.485099
      dz2     :     0.003894  d :     0.025129
      dxz     :     0.006379
      dyz     :     0.001892
      dx2y2   :     0.007159
      dxy     :     0.005804
 27 O s       :     3.468554  s :     3.468554
      pz      :     1.553136  p :     4.535235
      px      :     1.487182
      py      :     1.494917
      dz2     :     0.003730  d :     0.023824
      dxz     :     0.005095
      dyz     :     0.001574
      dx2y2   :     0.007134
      dxy     :     0.006291
 28 N s       :     3.082517  s :     3.082517
      pz      :     1.173337  p :     3.730264
      px      :     1.385966
      py      :     1.170961
      dz2     :     0.013237  d :     0.060656
      dxz     :     0.010051
      dyz     :     0.017841
      dx2y2   :     0.010556
      dxy     :     0.008971
 29 O s       :     3.557580  s :     3.557580
      pz      :     1.447748  p :     4.631220
      px      :     1.732212
      py      :     1.451261
      dz2     :     0.005253  d :     0.028488
      dxz     :     0.002831
      dyz     :     0.011973
      dx2y2   :     0.005163
      dxy     :     0.003268
 30 O s       :     3.559043  s :     3.559043
      pz      :     1.453109  p :     4.612356
      px      :     1.703897
      py      :     1.455349
      dz2     :     0.006770  d :     0.028538
      dxz     :     0.003288
      dyz     :     0.012097
      dx2y2   :     0.003899
      dxy     :     0.002483
 31 O s       :     3.558243  s :     3.558243
      pz      :     1.456065  p :     4.634999
      px      :     1.690007
      py      :     1.488926
      dz2     :     0.009571  d :     0.028280
      dxz     :     0.006064
      dyz     :     0.008979
      dx2y2   :     0.001608
      dxy     :     0.002058
 32 C s       :     2.846859  s :     2.846859
      pz      :     0.931774  p :     2.795362
      px      :     0.960350
      py      :     0.903238
      dz2     :     0.053879  d :     0.296389
      dxz     :     0.085119
      dyz     :     0.039336
      dx2y2   :     0.050013
      dxy     :     0.068043
 33 C s       :     2.849201  s :     2.849201
      pz      :     0.963940  p :     2.801534
      px      :     0.938559
      py      :     0.899035
      dz2     :     0.061111  d :     0.297101
      dxz     :     0.096272
      dyz     :     0.045486
      dx2y2   :     0.047960
      dxy     :     0.046273
 34 C s       :     2.850431  s :     2.850431
      pz      :     0.920706  p :     2.801373
      px      :     0.957494
      py      :     0.923173
      dz2     :     0.047232  d :     0.297109
      dxz     :     0.073812
      dyz     :     0.039162
      dx2y2   :     0.057913
      dxy     :     0.078990
 35 C s       :     2.862445  s :     2.862445
      pz      :     0.868354  p :     3.003631
      px      :     1.048956
      py      :     1.086320
      dz2     :     0.029057  d :     0.099595
      dxz     :     0.021471
      dyz     :     0.019162
      dx2y2   :     0.016709
      dxy     :     0.013195
 36 H s       :     0.869702  s :     0.869702
      pz      :     0.016603  p :     0.069620
      px      :     0.013335
      py      :     0.039682
 37 H s       :     0.883260  s :     0.883260
      pz      :     0.008956  p :     0.067828
      px      :     0.042023
      py      :     0.016850
 38 C s       :     2.859637  s :     2.859637
      pz      :     1.043980  p :     3.006645
      px      :     1.058474
      py      :     0.904191
      dz2     :     0.007084  d :     0.098647
      dxz     :     0.023182
      dyz     :     0.027459
      dx2y2   :     0.023561
      dxy     :     0.017361
 39 H s       :     0.879076  s :     0.879076
      pz      :     0.024456  p :     0.068293
      px      :     0.034592
      py      :     0.009245
 40 H s       :     0.862612  s :     0.862612
      pz      :     0.027661  p :     0.068324
      px      :     0.015778
      py      :     0.024885
 41 C s       :     2.855628  s :     2.855628
      pz      :     1.011422  p :     3.007039
      px      :     1.056005
      py      :     0.939611
      dz2     :     0.006748  d :     0.097881
      dxz     :     0.025220
      dyz     :     0.029356
      dx2y2   :     0.019204
      dxy     :     0.017352
 42 H s       :     0.858320  s :     0.858320
      pz      :     0.021306  p :     0.068535
      px      :     0.017966
      py      :     0.029263
 43 H s       :     0.871926  s :     0.871926
      pz      :     0.025950  p :     0.068497
      px      :     0.031562
      py      :     0.010985
 44 H s       :     0.904284  s :     0.904284
      pz      :     0.012181  p :     0.064144
      px      :     0.019891
      py      :     0.032072
 45 H s       :     0.899647  s :     0.899647
      pz      :     0.027930  p :     0.064024
      px      :     0.015608
      py      :     0.020486
 46 H s       :     0.904057  s :     0.904057
      pz      :     0.013311  p :     0.064166
      px      :     0.037043
      py      :     0.013813
 47 H s       :     0.902227  s :     0.902227
      pz      :     0.014845  p :     0.063893
      px      :     0.020169
      py      :     0.028879
 48 H s       :     0.901081  s :     0.901081
      pz      :     0.013308  p :     0.063961
      px      :     0.019436
      py      :     0.031217
 49 H s       :     0.896446  s :     0.896446
      pz      :     0.019204  p :     0.063972
      px      :     0.032354
      py      :     0.012414


                      *****************************
                      * MAYER POPULATION ANALYSIS *
                      *****************************

  NA   - Mulliken gross atomic population
  ZA   - Total nuclear charge
  QA   - Mulliken gross atomic charge
  VA   - Mayer's total valence
  BVA  - Mayer's bonded valence
  FA   - Mayer's free valence

  ATOM       NA         ZA         QA         VA         BVA        FA
  0 Co    26.9538    27.0000     0.0462     4.5493     4.5493    -0.0000
  1 C      6.0834     6.0000    -0.0834     4.0448     4.0448    -0.0000
  2 C      5.9556     6.0000     0.0444     4.0206     4.0206    -0.0000
  3 C      6.0442     6.0000    -0.0442     3.9520     3.9520    -0.0000
  4 C      6.0023     6.0000    -0.0023     3.8257     3.8257    -0.0000
  5 N      7.0370     7.0000    -0.0370     3.5117     3.5117     0.0000
  6 C      5.8387     6.0000     0.1613     3.8778     3.8778    -0.0000
  7 N      7.1964     7.0000    -0.1964     3.4185     3.4185    -0.0000
  8 H      0.9489     1.0000     0.0511     0.9836     0.9836    -0.0000
  9 H      0.9397     1.0000     0.0603     0.9790     0.9790    -0.0000
 10 H      0.8061     1.0000     0.1939     0.9709     0.9709     0.0000
 11 H      0.9553     1.0000     0.0447     1.0269     1.0269    -0.0000
 12 H      0.9035     1.0000     0.0965     1.0031     1.0031    -0.0000
 13 C      6.0872     6.0000    -0.0872     4.0559     4.0559    -0.0000
 14 C      5.9646     6.0000     0.0354     4.0363     4.0363     0.0000
 15 C      6.1096     6.0000    -0.1096     4.0387     4.0387    -0.0000
 16 C      6.0487     6.0000    -0.0487     3.8351     3.8351    -0.0000
 17 N      7.2143     7.0000    -0.2143     3.1664     3.1664    -0.0000
 18 C      5.9345     6.0000     0.0655     3.9251     3.9251    -0.0000
 19 N      7.0291     7.0000    -0.0291     3.5051     3.5051    -0.0000
 20 H      0.9558     1.0000     0.0442     0.9861     0.9861    -0.0000
 21 H      0.9578     1.0000     0.0422     0.9873     0.9873     0.0000
 22 H      0.9530     1.0000     0.0470     1.0012     1.0012     0.0000
 23 H      0.9327     1.0000     0.0673     1.0324     1.0324     0.0000
 24 H      0.8121     1.0000     0.1879     0.9708     0.9708    -0.0000
 25 O      8.2588     8.0000    -0.2588     2.2989     2.2989    -0.0000
 26 O      8.2293     8.0000    -0.2293     2.3322     2.3322    -0.0000
 27 O      8.2828     8.0000    -0.2828     2.2707     2.2707    -0.0000
 28 N      7.3496     7.0000    -0.3496     3.3852     3.3852     0.0000
 29 O      8.2479     8.0000    -0.2479     2.2837     2.2837     0.0000
 30 O      8.2324     8.0000    -0.2324     2.3156     2.3156    -0.0000
 31 O      8.2570     8.0000    -0.2570     2.2718     2.2718    -0.0000
 32 C      5.8555     6.0000     0.1445     4.3445     4.3445    -0.0000
 33 C      5.8702     6.0000     0.1298     4.3639     4.3639    -0.0000
 34 C      5.8711     6.0000     0.1289     4.3599     4.3599     0.0000
 35 C      5.8944     6.0000     0.1056     3.7071     3.7071    -0.0000
 36 H      0.9151     1.0000     0.0849     1.0294     1.0294    -0.0000
 37 H      0.9257     1.0000     0.0743     1.0005     1.0005     0.0000
 38 C      5.8953     6.0000     0.1047     3.7597     3.7597    -0.0000
 39 H      0.9231     1.0000     0.0769     1.0060     1.0060    -0.0000
 40 H      0.9041     1.0000     0.0959     1.0050     1.0050    -0.0000
 41 C      5.8961     6.0000     0.1039     3.7729     3.7729     0.0000
 42 H      0.8912     1.0000     0.1088     0.9927     0.9927    -0.0000
 43 H      0.9126     1.0000     0.0874     1.0040     1.0040    -0.0000
 44 H      0.9563     1.0000     0.0437     0.9854     0.9854     0.0000
 45 H      0.9568     1.0000     0.0432     0.9826     0.9826     0.0000
 46 H      0.9552     1.0000     0.0448     0.9850     0.9850    -0.0000
 47 H      0.9530     1.0000     0.0470     0.9870     0.9870     0.0000
 48 H      0.9494     1.0000     0.0506     0.9841     0.9841     0.0000
 49 H      0.9526     1.0000     0.0474     0.9834     0.9834    -0.0000

  Mayer bond orders larger than 0.100000
B(  0-Co,  7-N ) :   0.5870 B(  0-Co, 17-N ) :   0.1950 B(  0-Co, 25-O ) :   0.7880 
B(  0-Co, 26-O ) :   0.9147 B(  0-Co, 27-O ) :   0.7500 B(  0-Co, 28-N ) :   0.6179 
B(  0-Co, 30-O ) :   0.1040 B(  1-C ,  2-C ) :   1.1253 B(  1-C , 47-H ) :   0.9683 
B(  1-C , 48-H ) :   0.9628 B(  1-C , 49-H ) :   0.9584 B(  2-C ,  3-C ) :   1.0623 
B(  2-C ,  8-H ) :   0.9126 B(  2-C ,  9-H ) :   0.9093 B(  3-C ,  4-C ) :   1.4796 
B(  3-C ,  5-N ) :   1.2266 B(  4-C ,  7-N ) :   1.2271 B(  4-C , 11-H ) :   0.9875 
B(  5-N ,  6-C ) :   1.2878 B(  5-N , 10-H ) :   0.9091 B(  6-C ,  7-N ) :   1.4213 
B(  6-C , 12-H ) :   0.9460 B( 13-C , 14-C ) :   1.1310 B( 13-C , 44-H ) :   0.9612 
B( 13-C , 45-H ) :   0.9598 B( 13-C , 46-H ) :   0.9601 B( 14-C , 15-C ) :   1.0646 
B( 14-C , 20-H ) :   0.9154 B( 14-C , 21-H ) :   0.9158 B( 15-C , 16-C ) :   1.4930 
B( 15-C , 17-N ) :   1.3274 B( 16-C , 19-N ) :   1.2088 B( 16-C , 22-H ) :   0.9796 
B( 17-N , 18-C ) :   1.4806 B( 18-C , 19-N ) :   1.2893 B( 18-C , 23-H ) :   0.9352 
B( 19-N , 24-H ) :   0.9087 B( 25-O , 31-O ) :   0.1036 B( 25-O , 33-C ) :   1.2937 
B( 26-O , 30-O ) :   0.1089 B( 26-O , 32-C ) :   1.2491 B( 27-O , 29-O ) :   0.1019 
B( 27-O , 34-C ) :   1.2559 B( 28-N , 35-C ) :   0.8815 B( 28-N , 38-C ) :   0.8901 
B( 28-N , 41-C ) :   0.8782 B( 29-O , 34-C ) :   2.0460 B( 30-O , 32-C ) :   2.0302 
B( 31-O , 33-C ) :   2.0271 B( 32-C , 41-C ) :   0.9602 B( 33-C , 35-C ) :   0.9248 
B( 34-C , 38-C ) :   0.9440 B( 35-C , 36-H ) :   0.9039 B( 35-C , 37-H ) :   0.9258 
B( 38-C , 39-H ) :   0.9222 B( 38-C , 40-H ) :   0.9132 B( 41-C , 42-H ) :   0.9124 
B( 41-C , 43-H ) :   0.9197 

-------
TIMINGS
-------

Total SCF time: 0 days 0 hours 2 min 28 sec 

Total time                  ....     148.595 sec
Sum of individual times     ....     147.011 sec  ( 98.9%)

Fock matrix formation       ....     140.136 sec  ( 94.3%)
  Split-RI-J                ....      36.327 sec  ( 25.9% of F)
  XC integration            ....      42.456 sec  ( 30.3% of F)
    Basis function eval.    ....      20.167 sec  ( 47.5% of XC)
    Density eval.           ....      11.600 sec  ( 27.3% of XC)
    XC-Functional eval.     ....       3.210 sec  (  7.6% of XC)
    XC-Potential eval.      ....       5.279 sec  ( 12.4% of XC)
Diagonalization             ....       0.675 sec  (  0.5%)
Density matrix formation    ....       0.090 sec  (  0.1%)
Population analysis         ....       0.051 sec  (  0.0%)
Initial guess               ....       0.074 sec  (  0.1%)
Orbital Transformation      ....       0.000 sec  (  0.0%)
Orbital Orthonormalization  ....       0.060 sec  (  0.0%)
DIIS solution               ....       0.518 sec  (  0.3%)
Grid generation             ....       5.466 sec  (  3.7%)

Maximum memory used throughout the entire SCF-calculation: 290.5 MB


-------------------------------------------------------------------------------
                          DFT DISPERSION CORRECTION                            
                                                                               
                              DFTD3 V3.1  Rev 1                                
                          USING Becke-Johnson damping                          
-------------------------------------------------------------------------------
The BP86 functional is recognized
Active option DFTDOPT                   ...         4   

molecular C6(AA) [au] = 27135.657801 


            DFT-D V3
 parameters
 s6 scaling factor         :     1.0000 
 a1 scaling factor         :     0.3946 
 s8 scaling factor         :     3.2822 
 a2 scaling factor         :     4.8516 
 ad hoc parameters k1-k3   :    16.0000     1.3333    -4.0000 

 Edisp/kcal,au: -68.023701401816  -0.108402656784 
 E6   /kcal   : -25.690109441 
 E8   /kcal   : -42.333591961 
 % E8         :  62.233590775 

-------------------------   ----------------
Dispersion correction           -0.108402657
-------------------------   ----------------


-------------------------   --------------------
FINAL SINGLE POINT ENERGY     -2730.459282288200
-------------------------   --------------------

                                *** OPTIMIZATION RUN DONE ***

                            ***************************************
                            *     ORCA property calculations      *
                            ***************************************

                                    ---------------------
                                    Active property flags
                                    ---------------------
   (+) Dipole Moment


------------------------------------------------------------------------------
                       ORCA ELECTRIC PROPERTIES CALCULATION
------------------------------------------------------------------------------

Dipole Moment Calculation                       ... on
Quadrupole Moment Calculation                   ... off
Polarizability Calculation                      ... off
GBWName                                         ... opt.gbw
Electron density file                           ... opt.scfp
The origin for moment calculation is the CENTER OF MASS  = (-11.631365,  2.149893 -21.126326)

-------------
DIPOLE MOMENT
-------------
                                X             Y             Z
Electronic contribution:     -9.35441      10.52827     -32.40855
Nuclear contribution   :     12.32485     -14.51722      34.56902
                        -----------------------------------------
Total Dipole Moment    :      2.97044      -3.98895       2.16048
                        -----------------------------------------
Magnitude (a.u.)       :      5.42244
Magnitude (Debye)      :     13.78274



--------------------
Rotational spectrum 
--------------------
 
Rotational constants in cm-1:     0.006784     0.004758     0.004054 
Rotational constants in MHz :   203.378557   142.634860   121.547548 

 Dipole components along the rotational axes: 
x,y,z [a.u.] :     4.654207    -0.034976     2.782080 
x,y,z [Debye]:    11.830055    -0.088903     7.071485 

 

Timings for individual modules:

Sum of individual times         ...    10933.760 sec (= 182.229 min)
GTO integral calculation        ...       31.626 sec (=   0.527 min)   0.3 %
SCF iterations                  ...     8606.603 sec (= 143.443 min)  78.7 %
SCF Gradient evaluation         ...     2275.580 sec (=  37.926 min)  20.8 %
Geometry relaxation             ...       19.950 sec (=   0.333 min)   0.2 %
                             ****ORCA TERMINATED NORMALLY****
TOTAL RUN TIME: 0 days 3 hours 2 minutes 27 seconds 900 msec
