
                                        *****************
                                        * O   R   C   A *
                                        *****************

                                            #,                                       
                                            ###                                      
                                            ####                                     
                                            #####                                    
                                            ######                                   
                                           ########,                                 
                                     ,,################,,,,,                         
                               ,,#################################,,                 
                          ,,##########################################,,             
                       ,#########################################, ''#####,          
                    ,#############################################,,   '####,        
                  ,##################################################,,,,####,       
                ,###########''''           ''''###############################       
              ,#####''   ,,,,##########,,,,          '''####'''          '####       
            ,##' ,,,,###########################,,,                        '##       
           ' ,,###''''                  '''############,,,                           
         ,,##''                                '''############,,,,        ,,,,,,###''
      ,#''                                            '''#######################'''  
     '                                                          ''''####''''         
             ,#######,   #######,   ,#######,      ##                                
            ,#'     '#,  ##    ##  ,#'     '#,    #''#        ######   ,####,        
            ##       ##  ##   ,#'  ##            #'  '#       #        #'  '#        
            ##       ##  #######   ##           ,######,      #####,   #    #        
            '#,     ,#'  ##    ##  '#,     ,#' ,#      #,         ##   #,  ,#        
             '#######'   ##     ##  '#######'  #'      '#     #####' # '####'        



                  #######################################################
                  #                        -***-                        #
                  #          Department of theory and spectroscopy      #
                  #    Directorship and core code : Frank Neese         #
                  #        Max Planck Institute fuer Kohlenforschung    #
                  #                Kaiser Wilhelm Platz 1               #
                  #                 D-45470 Muelheim/Ruhr               #
                  #                      Germany                        #
                  #                                                     #
                  #                  All rights reserved                #
                  #                        -***-                        #
                  #######################################################


                         Program Version 5.0.0 -  RELEASE  -
                                (SVN: $Rev: 19529$)
                ($Date: 2021-06-28 11:36:33 +0200 (Mo, 28 Jun 2021) $)


 With contributions from (in alphabetic order):
   Daniel Aravena         : Magnetic Suceptibility
   Michael Atanasov       : Ab Initio Ligand Field Theory (pilot matlab implementation)
   Alexander A. Auer      : GIAO ZORA, VPT2 properties, NMR spectrum
   Ute Becker             : Parallelization
   Giovanni Bistoni       : ED, misc. LED, open-shell LED, HFLD
   Martin Brehm           : Molecular dynamics
   Dmytro Bykov           : SCF Hessian
   Vijay G. Chilkuri      : MRCI spin determinant printing, contributions to CSF-ICE
   Dipayan Datta          : RHF DLPNO-CCSD density
   Achintya Kumar Dutta   : EOM-CC, STEOM-CC
   Dmitry Ganyushin       : Spin-Orbit,Spin-Spin,Magnetic field MRCI
   Miquel Garcia          : C-PCM Hessian, Gaussian charge scheme
   Yang Guo               : DLPNO-NEVPT2, F12-NEVPT2, CIM, IAO-localization
   Andreas Hansen         : Spin unrestricted coupled pair/coupled cluster methods
   Benjamin Helmich-Paris : MC-RPA, TRAH-SCF, COSX integrals
   Lee Huntington         : MR-EOM, pCC
   Robert Izsak           : Overlap fitted RIJCOSX, COSX-SCS-MP3, EOM
   Marcus Kettner         : VPT2
   Christian Kollmar      : KDIIS, OOCD, Brueckner-CCSD(T), CCSD density, CASPT2, CASPT2-K
   Simone Kossmann        : Meta GGA functionals, TD-DFT gradient, OOMP2, MP2 Hessian
   Martin Krupicka        : Initial AUTO-CI
   Lucas Lang             : DCDCAS
   Marvin Lechner         : AUTO-CI (C++ implementation), FIC-MRCC
   Dagmar Lenk            : GEPOL surface, SMD
   Dimitrios Liakos       : Extrapolation schemes; Compound Job, initial MDCI parallelization
   Dimitrios Manganas     : Further ROCIS development; embedding schemes
   Dimitrios Pantazis     : SARC Basis sets
   Anastasios Papadopoulos: AUTO-CI, single reference methods and gradients
   Taras Petrenko         : DFT Hessian,TD-DFT gradient, ASA, ECA, R-Raman, ABS, FL, XAS/XES, NRVS
   Peter Pinski           : DLPNO-MP2, DLPNO-MP2 Gradient
   Christoph Reimann      : Effective Core Potentials
   Marius Retegan         : Local ZFS, SOC
   Christoph Riplinger    : Optimizer, TS searches, QM/MM, DLPNO-CCSD(T), (RO)-DLPNO pert. Triples
   Tobias Risthaus        : Range-separated hybrids, TD-DFT gradient, RPA, STAB
   Michael Roemelt        : Original ROCIS implementation
   Masaaki Saitow         : Open-shell DLPNO-CCSD energy and density
   Barbara Sandhoefer     : DKH picture change effects
   Avijit Sen             : IP-ROCIS
   Kantharuban Sivalingam : CASSCF convergence, NEVPT2, FIC-MRCI
   Bernardo de Souza      : ESD, SOC TD-DFT
   Georgi Stoychev        : AutoAux, RI-MP2 NMR
   Willem Van den Heuvel  : Paramagnetic NMR
   Boris Wezisla          : Elementary symmetry handling
   Frank Wennmohs         : Technical directorship


 We gratefully acknowledge several colleagues who have allowed us to
 interface, adapt or use parts of their codes:
   Stefan Grimme, W. Hujo, H. Kruse, P. Pracht,  : VdW corrections, initial TS optimization,
                  C. Bannwarth, S. Ehlert          DFT functionals, gCP, sTDA/sTD-DF
   Ed Valeev, F. Pavosevic, A. Kumar             : LibInt (2-el integral package), F12 methods
   Garnet Chan, S. Sharma, J. Yang, R. Olivares  : DMRG
   Ulf Ekstrom                                   : XCFun DFT Library
   Mihaly Kallay                                 : mrcc  (arbitrary order and MRCC methods)
   Jiri Pittner, Ondrej Demel                    : Mk-CCSD
   Frank Weinhold                                : gennbo (NPA and NBO analysis)
   Christopher J. Cramer and Donald G. Truhlar   : smd solvation model
   Lars Goerigk                                  : TD-DFT with DH, B97 family of functionals
   V. Asgeirsson, H. Jonsson                     : NEB implementation
   FAccTs GmbH                                   : IRC, NEB, NEB-TS, DLPNO-Multilevel, CI-OPT
                                                   MM, QMMM, 2- and 3-layer-ONIOM, Crystal-QMMM,
                                                   LR-CPCM, SF, NACMEs, symmetry and pop. for TD-DFT,
                                                   nearIR, NL-DFT gradient (VV10), updates on ESD,
                                                   ML-optimized integration grids
   S Lehtola, MJT Oliveira, MAL Marques          : LibXC Library
   Liviu Ungur et al                             : ANISO software


 Your calculation uses the libint2 library for the computation of 2-el integrals
 For citations please refer to: http://libint.valeyev.net

 Your ORCA version has been built with support for libXC version: 5.1.0
 For citations please refer to: https://tddft.org/programs/libxc/

 This ORCA versions uses:
   CBLAS   interface :  Fast vector & matrix operations
   LAPACKE interface :  Fast linear algebra routines
   SCALAPACK package :  Parallel linear algebra routines
   Shared memory     :  Shared parallel matrices
   BLAS/LAPACK       :  OpenBLAS 0.3.15  USE64BITINT DYNAMIC_ARCH NO_AFFINITY SkylakeX SINGLE_THREADED
        Core in use  :  SkylakeX
   Copyright (c) 2011-2014, The OpenBLAS Project




***************************************
The coordinates will be read from file: ../32Nd-28Ne-nta-co-min.xyz
***************************************


Your calculation utilizes the atom-pairwise dispersion correction
with the Becke-Johnson damping scheme (D3BJ)
Cite in your paper:
S.Grimme, S.Ehrlich, L.Goerigk, J Comput Chem, (2011), 32, 1456–1465 
S.Grimme, J.Antony, S.Ehrlich and H.Krieg, J.Chem.Phys., 132, (2010), 154104 
   

Your calculation utilizes the SMD solvation module
Please cite in your paper:
A.V. Marenich, C.J. Cramer, D.G. Truhlar J. Phys. Chem. B, 113, (2009), 6378 

================================================================================

----- Orbital basis set information -----
Your calculation utilizes the basis: def2-SVP
   F. Weigend and R. Ahlrichs, Phys. Chem. Chem. Phys. 7, 3297 (2005).

The basis set includes element-specific modifications.

Your calculation utilizes the basis: def2-TZVP
   F. Weigend and R. Ahlrichs, Phys. Chem. Chem. Phys. 7, 3297 (2005).

----- AuxJ basis set information -----
Your calculation utilizes the auxiliary basis: def2/J
   F. Weigend, Phys. Chem. Chem. Phys. 8, 1057 (2006).

================================================================================
                                        WARNINGS
                       Please study these warnings very carefully!
================================================================================


WARNING: Geometry Optimization
  ===> : Switching off AutoStart
         For restart on a previous wavefunction, please use MOREAD

INFO   : the flag for use of the SHARK integral package has been found!

================================================================================
                                       INPUT FILE
================================================================================
NAME = opt.inp
|  1> ! RI BP86 def2-SVP def2/J D3BJ TIGHTSCF Opt
|  2> ! CPCM
|  3> # memory
|  4> %maxcore 32000
|  5> # smd solvation model
|  6> %cpcm
|  7> smd true
|  8> SMDsolvent "DMF"
|  9> end
| 10> # triple zeta basis on Co
| 11> %basis newgto Co "def2-TZVP" end end
| 12> # constrain CA and CB atoms of diHis (determined by backbone helix)
| 13> # and constrain Co in PCS defined position
| 14> %geom
| 15> Constraints
| 16> {C 1 C}
| 17> {C 2 C}
| 18> {C 13 C}
| 19> {C 14 C}
| 20> end
| 21> end
| 22>  * xyzfile 0 1 ../32Nd-28Ne-nta-co-min.xyz
| 23> 
| 24>                          ****END OF INPUT****
================================================================================

                       *****************************
                       * Geometry Optimization Run *
                       *****************************

Geometry optimization settings:
Update method            Update   .... BFGS
Choice of coordinates    CoordSys .... Z-matrix Internals
Initial Hessian          InHess   .... Almoef's Model

Convergence Tolerances:
Energy Change            TolE     ....  5.0000e-06 Eh
Max. Gradient            TolMAXG  ....  3.0000e-04 Eh/bohr
RMS Gradient             TolRMSG  ....  1.0000e-04 Eh/bohr
Max. Displacement        TolMAXD  ....  4.0000e-03 bohr
RMS Displacement         TolRMSD  ....  2.0000e-03 bohr
Strict Convergence                ....  False
------------------------------------------------------------------------------
                        ORCA OPTIMIZATION COORDINATE SETUP
------------------------------------------------------------------------------

The optimization will be done in new redundant internal coordinates
Making redundant internal coordinates   ...  (new redundants) done
Evaluating the initial hessian          ...  (Almloef) done
Evaluating the coordinates              ...  done
Calculating the B-matrix                .... done
Calculating the G-matrix                .... done
Diagonalizing the G-matrix              .... done
Imposing constraints:
 Iter   0:  RMS(Cart)=    0.0000000000 RMS(Int)=    0.0000000000
CONVERGED
Will constrain atom 1 coordinate 1 
Will constrain atom 1 coordinate 2 
Will constrain atom 1 coordinate 3 
Will constrain atom 2 coordinate 1 
Will constrain atom 2 coordinate 2 
Will constrain atom 2 coordinate 3 
Will constrain atom 13 coordinate 1 
Will constrain atom 13 coordinate 2 
Will constrain atom 13 coordinate 3 
Will constrain atom 14 coordinate 1 
Will constrain atom 14 coordinate 2 
Will constrain atom 14 coordinate 3 
Small eigenvalue found = 8.070e-04
Small eigenvalue found = 3.009e-03
Small eigenvalue found = 1.039e-02
Small eigenvalue found = 1.587e-02
The first mode is                       ....  475
The number of degrees of freedom        ....  150
Storing new coordinates                 .... done

    -----------------------------------------------------------------
                    Redundant Internal Coordinates


    -----------------------------------------------------------------
         Definition                    Initial Value    Approx d2E/dq
    -----------------------------------------------------------------
      1. B(C   2,C   1)                  1.5300         0.373561   
      2. B(C   3,C   2)                  1.5657         0.327648   
      3. B(C   4,C   3)                  1.3516         0.719377   
      4. B(N   5,C   3)                  1.4020         0.535418   
      5. B(C   6,N   5)                  1.4509         0.447451   
      6. B(N   7,Co  0)                  1.9582         0.702223   
      7. B(N   7,C   4)                  1.4184         0.504081   
      8. B(N   7,C   6)                  1.4616         0.430215   
      9. B(H   8,C   2)                  1.1105         0.333994   
     10. B(H   9,C   2)                  1.1102         0.334323   
     11. B(H  10,N   5)                  1.0299         0.402188   
     12. B(H  11,C   4)                  1.0770         0.377684   
     13. B(H  12,C   6)                  1.1074         0.337826   
     14. B(C  14,C  13)                  1.5295         0.374301   
     15. B(C  15,C  14)                  1.5089         0.403654   
     16. B(C  16,C  15)                  1.3220         0.802009   
     17. B(N  17,Co  0)                  2.0134         0.573391   
     18. B(N  17,C  15)                  1.4558         0.439426   
     19. B(C  18,N  17)                  1.4531         0.443871   
     20. B(N  19,C  16)                  1.3938         0.551868   
     21. B(N  19,C  18)                  1.4342         0.475639   
     22. B(H  20,C  14)                  1.1124         0.331607   
     23. B(H  21,C  14)                  1.1095         0.335212   
     24. B(H  22,C  16)                  1.0831         0.369350   
     25. B(H  23,C  18)                  1.1106         0.333839   
     26. B(H  24,N  19)                  1.0298         0.402343   
     27. B(O  25,Co  0)                  1.8187         1.172400   
     28. B(O  26,Co  0)                  1.8057         1.229827   
     29. B(O  27,Co  0)                  1.8180         1.175298   
     30. B(N  28,Co  0)                  1.9619         0.692618   
     31. B(C  32,Co  0)                  2.6753         0.056274   
     32. B(C  32,O  26)                  1.3296         0.698490   
     33. B(C  32,O  30)                  1.2203         1.043890   
     34. B(C  33,Co  0)                  2.6303         0.066382   
     35. B(C  33,O  25)                  1.3522         0.642922   
     36. B(C  33,O  31)                  1.2204         1.043251   
     37. B(C  34,Co  0)                  2.6642         0.058615   
     38. B(C  34,O  27)                  1.3548         0.636831   
     39. B(C  34,O  29)                  1.2200         1.045062   
     40. B(C  35,Co  0)                  2.7169         0.048289   
     41. B(C  35,N  28)                  1.4663         0.422873   
     42. B(C  35,C  33)                  1.4996         0.417785   
     43. B(H  36,C  35)                  1.1068         0.338510   
     44. B(H  37,C  35)                  1.1128         0.331114   
     45. B(C  38,Co  0)                  2.7896         0.036972   
     46. B(C  38,N  28)                  1.4793         0.403080   
     47. B(C  38,C  34)                  1.5081         0.404798   
     48. B(H  39,C  38)                  1.1121         0.332030   
     49. B(H  40,C  38)                  1.1081         0.336945   
     50. B(C  41,N  28)                  1.5044         0.367603   
     51. B(C  41,C  32)                  1.4790         0.450622   
     52. B(H  42,C  41)                  1.1139         0.329890   
     53. B(H  43,C  41)                  1.1123         0.331807   
     54. B(H  44,C  13)                  1.0957         0.352669   
     55. B(H  45,C  13)                  1.1107         0.333737   
     56. B(H  46,C  13)                  1.1100         0.334608   
     57. B(H  47,C   1)                  1.1125         0.331565   
     58. B(H  48,C   1)                  1.1117         0.332568   
     59. B(H  49,C   1)                  1.1101         0.334426   
     60. A(N  17,Co  0,C  34)           84.6171         0.352593   
     61. A(N  28,Co  0,C  34)           60.1479         0.364108   
     62. A(N  28,Co  0,C  38)           30.3832         0.336858   
     63. A(N   7,Co  0,O  26)           85.7180         0.635384   
     64. A(N   7,Co  0,C  33)          122.1922         0.372850   
     65. A(C  33,Co  0,C  34)          118.1011         0.251754   
     66. A(C  33,Co  0,C  38)           86.1439         0.235633   
     67. A(O  26,Co  0,C  34)           95.9945         0.402286   
     68. A(O  27,Co  0,C  34)           27.8184         0.399086   
     69. A(N   7,Co  0,N  17)           93.3013         0.548718   
     70. A(O  27,Co  0,C  35)          113.8799         0.385780   
     71. A(C  32,Co  0,C  34)           83.6110         0.245781   
     72. A(N   7,Co  0,C  35)          152.2918         0.353124   
     73. A(O  26,Co  0,C  32)           26.4560         0.399408   
     74. A(O  26,Co  0,C  38)          100.5761         0.371254   
     75. A(O  26,Co  0,C  35)          103.2312         0.388842   
     76. A(N  17,Co  0,C  35)           77.5786         0.341281   
     77. A(O  26,Co  0,N  28)           87.6532         0.633684   
     78. A(C  32,Co  0,C  33)           78.8128         0.250259   
     79. A(N  17,Co  0,N  28)           93.3302         0.547287   
     80. A(N   7,Co  0,O  27)           92.0251         0.629804   
     81. A(O  25,Co  0,O  26)           89.7693         0.702594   
     82. A(N  28,Co  0,C  35)           31.5919         0.352302   
     83. A(N  17,Co  0,C  33)           86.9972         0.360122   
     84. A(C  32,Co  0,C  35)           79.1335         0.239053   
     85. A(O  26,Co  0,C  33)           93.3951         0.411235   
     86. A(N   7,Co  0,N  28)          173.2754         0.568801   
     87. A(O  26,Co  0,O  27)           89.7970         0.702937   
     88. A(C  32,Co  0,C  38)           77.6889         0.230251   
     89. A(O  25,Co  0,N  28)           87.4838         0.627820   
     90. A(N  28,Co  0,C  33)           59.3266         0.371966   
     91. A(N  28,Co  0,C  32)           61.2324         0.361581   
     92. A(O  25,Co  0,O  27)          174.2965         0.696328   
     93. A(C  33,Co  0,C  35)           32.5210         0.244770   
     94. A(N   7,Co  0,C  32)          112.1621         0.362432   
     95. A(O  27,Co  0,C  38)           59.8137         0.368372   
     96. A(N   7,Co  0,C  38)          150.8127         0.337632   
     97. A(O  25,Co  0,C  34)          146.7062         0.398913   
     98. A(N  17,Co  0,O  27)           90.3897         0.605555   
     99. A(O  25,Co  0,C  32)           87.4224         0.396066   
    100. A(N   7,Co  0,C  34)          119.4621         0.364967   
    101. A(N  17,Co  0,O  25)           90.1415         0.605267   
    102. A(N   7,Co  0,O  25)           93.6135         0.629502   
    103. A(O  27,Co  0,C  32)           89.6583         0.396238   
    104. A(N  17,Co  0,C  32)          154.5192         0.350172   
    105. A(C  34,Co  0,C  38)           32.0012         0.231561   
    106. A(O  27,Co  0,N  28)           86.8162         0.628121   
    107. A(O  25,Co  0,C  33)           28.6299         0.407766   
    108. A(O  25,Co  0,C  38)          114.7122         0.368216   
    109. A(N  17,Co  0,C  38)           80.3567         0.326484   
    110. A(C  34,Co  0,C  35)           86.0658         0.240444   
    111. A(O  25,Co  0,C  35)           60.7343         0.385614   
    112. A(O  27,Co  0,C  33)          145.7705         0.407944   
    113. A(C  35,Co  0,C  38)           54.1010         0.225443   
    114. A(H  48,C   1,H  49)          106.4258         0.283947   
    115. A(C   2,C   1,H  49)          108.2191         0.320410   
    116. A(C   2,C   1,H  47)          111.8264         0.319961   
    117. A(H  47,C   1,H  49)          107.0397         0.283814   
    118. A(H  47,C   1,H  48)          111.3941         0.283569   
    119. A(C   2,C   1,H  48)          111.6252         0.320119   
    120. A(C   3,C   2,H   8)          109.6481         0.313577   
    121. A(C   1,C   2,H   9)          112.4275         0.320394   
    122. A(C   3,C   2,H   9)          111.2833         0.313627   
    123. A(C   1,C   2,C   3)          103.7171         0.355323   
    124. A(C   1,C   2,H   8)          109.4162         0.320342   
    125. A(H   8,C   2,H   9)          110.1567         0.284122   
    126. A(C   2,C   3,C   4)          127.6707         0.397904   
    127. A(C   4,C   3,N   5)          107.2274         0.431381   
    128. A(C   2,C   3,N   5)          125.0823         0.375553   
    129. A(C   3,C   4,H  11)          125.4090         0.364902   
    130. A(N   7,C   4,H  11)          121.4502         0.341468   
    131. A(C   3,C   4,N   7)          112.9306         0.426739   
    132. A(C   3,N   5,C   6)          109.2589         0.393964   
    133. A(C   3,N   5,H  10)          125.3359         0.345580   
    134. A(C   6,N   5,H  10)          125.3966         0.335366   
    135. A(N   5,C   6,N   7)          105.6256         0.379231   
    136. A(N   7,C   6,H  12)          111.0811         0.326502   
    137. A(N   5,C   6,H  12)          109.1565         0.328624   
    138. A(Co  0,N   7,C   6)          121.4377         0.461091   
    139. A(C   4,N   7,C   6)          104.8194         0.387166   
    140. A(Co  0,N   7,C   4)          116.6496         0.474677   
    141. A(C  14,C  13,H  46)          109.0733         0.320542   
    142. A(H  45,C  13,H  46)          108.5686         0.284126   
    143. A(C  14,C  13,H  44)          113.0090         0.323314   
    144. A(H  44,C  13,H  46)          107.9776         0.286578   
    145. A(H  44,C  13,H  45)          108.3903         0.286462   
    146. A(C  14,C  13,H  45)          109.7188         0.320406   
    147. A(C  13,C  14,H  20)          109.0508         0.320071   
    148. A(C  15,C  14,H  20)          108.5840         0.324053   
    149. A(C  15,C  14,H  21)          105.0710         0.324629   
    150. A(H  20,C  14,H  21)          104.9860         0.283923   
    151. A(C  13,C  14,C  15)          123.1991         0.368325   
    152. A(C  13,C  14,H  21)          104.3887         0.320637   
    153. A(C  14,C  15,C  16)          119.0577         0.420909   
    154. A(C  14,C  15,N  17)          129.7214         0.376270   
    155. A(C  16,C  15,N  17)          110.3641         0.424565   
    156. A(C  15,C  16,H  22)          126.0178         0.370351   
    157. A(N  19,C  16,H  22)          124.0230         0.345399   
    158. A(C  15,C  16,N  19)          109.7661         0.442324   
    159. A(Co  0,N  17,C  15)          133.7603         0.446115   
    160. A(Co  0,N  17,C  18)          120.1124         0.446929   
    161. A(C  15,N  17,C  18)          105.0999         0.380097   
    162. A(N  17,C  18,H  23)          110.6101         0.327546   
    163. A(N  19,C  18,H  23)          111.1091         0.331308   
    164. A(N  17,C  18,N  19)          105.6575         0.385361   
    165. A(C  16,N  19,C  18)          108.9334         0.400335   
    166. A(C  16,N  19,H  24)          125.3733         0.347366   
    167. A(C  18,N  19,H  24)          125.5356         0.338818   
    168. A(Co  0,O  25,C  33)          111.2467         0.546637   
    169. A(Co  0,O  26,C  32)          116.3152         0.560379   
    170. A(Co  0,O  27,C  34)          113.4096         0.545908   
    171. A(Co  0,N  28,C  41)          108.6985         0.446960   
    172. A(C  35,N  28,C  41)          110.0799         0.365523   
    173. A(C  38,N  28,C  41)          109.7403         0.362539   
    174. A(Co  0,N  28,C  35)          103.9036         0.458490   
    175. A(Co  0,N  28,C  38)          107.4882         0.454503   
    176. A(C  35,N  28,C  38)          116.5219         0.371349   
    177. A(Co  0,C  32,O  26)           37.2289         0.324897   
    178. A(Co  0,C  32,O  30)          158.0043         0.347355   
    179. A(O  26,C  32,O  30)          120.8221         0.481333   
    180. A(Co  0,C  32,C  41)           80.2544         0.304391   
    181. A(O  26,C  32,C  41)          117.4677         0.416089   
    182. A(O  30,C  32,C  41)          121.7100         0.447228   
    183. A(O  25,C  33,O  31)          121.1412         0.473987   
    184. A(Co  0,C  33,C  35)           76.9185         0.308801   
    185. A(O  25,C  33,C  35)          116.0500         0.404558   
    186. A(O  31,C  33,C  35)          122.1979         0.441097   
    187. A(Co  0,C  33,O  25)           40.1234         0.329333   
    188. A(Co  0,C  33,O  31)          154.7680         0.357161   
    189. A(O  29,C  34,C  38)          121.4375         0.438727   
    190. A(Co  0,C  34,O  27)           38.7719         0.322155   
    191. A(Co  0,C  34,O  29)          157.9548         0.349816   
    192. A(O  27,C  34,O  29)          120.6105         0.473309   
    193. A(Co  0,C  34,C  38)           78.5855         0.301175   
    194. A(O  27,C  34,C  38)          117.3430         0.401636   
    195. A(Co  0,C  35,N  28)           44.5045         0.292400   
    196. A(Co  0,C  35,C  33)           70.5605         0.293526   
    197. A(N  28,C  35,C  33)          104.5388         0.376010   
    198. A(Co  0,C  35,H  36)           93.3222         0.257666   
    199. A(N  28,C  35,H  36)          109.7804         0.325687   
    200. A(C  33,C  35,H  36)          107.3588         0.326998   
    201. A(Co  0,C  35,H  37)          155.5729         0.256824   
    202. A(N  28,C  35,H  37)          113.8161         0.324507   
    203. A(C  33,C  35,H  37)          114.0447         0.325811   
    204. A(H  36,C  35,H  37)          107.1185         0.284290   
    205. A(N  28,C  38,C  34)          106.6783         0.370891   
    206. A(Co  0,C  38,H  39)          145.5504         0.247080   
    207. A(N  28,C  38,H  39)          112.2253         0.322111   
    208. A(C  34,C  38,H  39)          111.7036         0.324272   
    209. A(Co  0,C  38,H  40)          107.6103         0.247606   
    210. A(N  28,C  38,H  40)          112.7407         0.322888   
    211. A(C  34,C  38,H  40)          109.3265         0.325055   
    212. A(H  39,C  38,H  40)          104.2353         0.284207   
    213. A(Co  0,C  38,C  34)           69.4133         0.280159   
    214. A(Co  0,C  38,N  28)           42.1286         0.278403   
    215. A(N  28,C  41,C  32)          109.7518         0.371857   
    216. A(N  28,C  41,H  42)          112.5900         0.316967   
    217. A(C  32,C  41,H  42)          107.7893         0.329700   
    218. A(N  28,C  41,H  43)          113.3668         0.317266   
    219. A(C  32,C  41,H  43)          106.7618         0.330016   
    220. A(H  42,C  41,H  43)          106.2545         0.283245   
    221. D(C   3,C   2,C   1,H  48)    -65.4731         0.011143   
    222. D(H   9,C   2,C   1,H  48)     54.8552         0.011143   
    223. D(H   8,C   2,C   1,H  49)     60.7991         0.011143   
    224. D(H   9,C   2,C   1,H  47)   -179.5904         0.011143   
    225. D(H   8,C   2,C   1,H  48)    177.5893         0.011143   
    226. D(C   3,C   2,C   1,H  49)    177.7367         0.011143   
    227. D(H   8,C   2,C   1,H  47)    -56.8562         0.011143   
    228. D(C   3,C   2,C   1,H  47)     60.0813         0.011143   
    229. D(H   9,C   2,C   1,H  49)    -61.9351         0.011143   
    230. D(N   5,C   3,C   2,H   8)    -58.0216         0.008223   
    231. D(C   4,C   3,C   2,H   9)   -114.0779         0.008223   
    232. D(N   5,C   3,C   2,C   1)   -174.7967         0.008223   
    233. D(C   4,C   3,C   2,H   8)    123.7980         0.008223   
    234. D(N   5,C   3,C   2,H   9)     64.1025         0.008223   
    235. D(C   4,C   3,C   2,C   1)      7.0228         0.008223   
    236. D(H  11,C   4,C   3,N   5)   -176.8958         0.036621   
    237. D(H  11,C   4,C   3,C   2)      1.5453         0.036621   
    238. D(N   7,C   4,C   3,N   5)     -2.1273         0.036621   
    239. D(N   7,C   4,C   3,C   2)    176.3139         0.036621   
    240. D(C   6,N   5,C   3,C   2)   -178.8269         0.022787   
    241. D(C   6,N   5,C   3,C   4)     -0.3347         0.022787   
    242. D(H  10,N   5,C   3,C   2)      2.1935         0.022787   
    243. D(H  10,N   5,C   3,C   4)   -179.3143         0.022787   
    244. D(H  12,C   6,N   5,H  10)    -59.0141         0.015767   
    245. D(H  12,C   6,N   5,C   3)    122.0071         0.015767   
    246. D(N   7,C   6,N   5,H  10)   -178.5221         0.015767   
    247. D(N   7,C   6,N   5,C   3)      2.4991         0.015767   
    248. D(C   4,N   7,C   6,H  12)   -121.7923         0.014579   
    249. D(C   4,N   7,Co  0,O  25)    -24.9256         0.004845   
    250. D(C   4,N   7,Co  0,O  26)     64.5717         0.004845   
    251. D(C   6,N   7,Co  0,C  35)   -175.9363         0.004845   
    252. D(C   6,N   7,Co  0,N  28)    -55.6782         0.004845   
    253. D(C   6,N   7,Co  0,C  33)   -156.7039         0.004845   
    254. D(C   6,N   7,Co  0,N  17)    114.7682         0.004845   
    255. D(C   6,N   7,C   4,H  11)    178.6434         0.020099   
    256. D(C   4,N   7,Co  0,C  33)    -26.7485         0.004845   
    257. D(C   6,N   7,Co  0,O  26)    -65.3838         0.004845   
    258. D(C   6,N   7,Co  0,C  38)     38.7022         0.004845   
    259. D(C   6,N   7,Co  0,C  32)    -66.1953         0.004845   
    260. D(C   4,N   7,Co  0,N  17)   -115.2764         0.004845   
    261. D(C   4,N   7,Co  0,O  27)    154.2162         0.004845   
    262. D(C   6,N   7,Co  0,C  34)     29.0888         0.004845   
    263. D(C   4,N   7,C   6,N   5)     -3.5631         0.014579   
    264. D(Co  0,N   7,C   4,C   3)   -133.7864         0.020099   
    265. D(C   4,N   7,Co  0,C  35)    -45.9808         0.004845   
    266. D(C   6,N   7,C   4,C   3)      3.6409         0.020099   
    267. D(C   4,N   7,Co  0,N  28)     74.2773         0.004845   
    268. D(C   6,N   7,Co  0,O  27)     24.2607         0.004845   
    269. D(C   4,N   7,Co  0,C  34)    159.0443         0.004845   
    270. D(C   4,N   7,Co  0,C  38)    168.6577         0.004845   
    271. D(C   6,N   7,Co  0,O  25)   -154.8811         0.004845   
    272. D(Co  0,N   7,C   6,N   5)    131.3090         0.014579   
    273. D(Co  0,N   7,C   4,H  11)     41.2161         0.020099   
    274. D(Co  0,N   7,C   6,H  12)     13.0797         0.014579   
    275. D(C   4,N   7,Co  0,C  32)     63.7602         0.004845   
    276. D(H  20,C  14,C  13,H  46)    -64.8562         0.011184   
    277. D(C  15,C  14,C  13,H  45)   -177.0811         0.011184   
    278. D(H  21,C  14,C  13,H  45)    -57.8278         0.011184   
    279. D(H  21,C  14,C  13,H  44)     63.2577         0.011184   
    280. D(C  15,C  14,C  13,H  44)    -55.9956         0.011184   
    281. D(C  15,C  14,C  13,H  46)     64.1123         0.011184   
    282. D(H  20,C  14,C  13,H  45)     53.9504         0.011184   
    283. D(H  20,C  14,C  13,H  44)    175.0359         0.011184   
    284. D(H  21,C  14,C  13,H  46)   -176.6344         0.011184   
    285. D(C  16,C  15,C  14,H  21)    155.9206         0.012083   
    286. D(N  17,C  15,C  14,C  13)    106.5557         0.012083   
    287. D(N  17,C  15,C  14,H  21)    -12.3752         0.012083   
    288. D(C  16,C  15,C  14,C  13)    -85.1485         0.012083   
    289. D(N  17,C  15,C  14,H  20)   -124.2799         0.012083   
    290. D(C  16,C  15,C  14,H  20)     44.0159         0.012083   
    291. D(H  22,C  16,C  15,C  14)      5.7720         0.046505   
    292. D(H  22,C  16,C  15,N  17)    176.1915         0.046505   
    293. D(N  19,C  16,C  15,C  14)   -169.3212         0.046505   
    294. D(N  19,C  16,C  15,N  17)      1.0983         0.046505   
    295. D(Co  0,N  17,C  15,C  14)    -26.3595         0.015206   
    296. D(C  18,N  17,Co  0,N   7)   -109.8468         0.003724   
    297. D(C  18,N  17,Co  0,C  35)     96.5998         0.003724   
    298. D(C  18,N  17,Co  0,C  33)    128.0562         0.003724   
    299. D(C  15,N  17,Co  0,C  38)   -125.0354         0.003724   
    300. D(C  15,N  17,Co  0,N  28)    -97.4589         0.003724   
    301. D(C  15,N  17,Co  0,O  27)    175.7076         0.003724   
    302. D(C  18,N  17,Co  0,N  28)     69.0377         0.003724   
    303. D(C  18,N  17,C  15,C  14)    165.7168         0.015206   
    304. D(C  18,N  17,Co  0,C  38)     41.4612         0.003724   
    305. D(C  18,N  17,Co  0,C  32)     72.2276         0.003724   
    306. D(Co  0,N  17,C  15,C  16)    164.5436         0.015206   
    307. D(C  15,N  17,Co  0,N   7)     83.6565         0.003724   
    308. D(C  15,N  17,Co  0,O  25)     -9.9712         0.003724   
    309. D(C  15,N  17,Co  0,C  32)    -94.2691         0.003724   
    310. D(C  18,N  17,Co  0,O  27)    -17.7958         0.003724   
    311. D(C  15,N  17,Co  0,C  34)   -157.0415         0.003724   
    312. D(C  18,N  17,Co  0,O  25)    156.5255         0.003724   
    313. D(C  18,N  17,Co  0,C  34)      9.4551         0.003724   
    314. D(C  15,N  17,Co  0,C  35)    -69.8968         0.003724   
    315. D(C  18,N  17,C  15,C  16)     -3.3802         0.015206   
    316. D(C  15,N  17,Co  0,C  33)    -38.4405         0.003724   
    317. D(N  19,C  18,N  17,Co  0)   -165.7486         0.015515   
    318. D(N  19,C  18,N  17,C  15)      4.1916         0.015515   
    319. D(H  23,C  18,N  17,Co  0)     73.9195         0.015515   
    320. D(H  23,C  18,N  17,C  15)   -116.1403         0.015515   
    321. D(H  24,N  19,C  18,N  17)   -179.3605         0.017840   
    322. D(C  16,N  19,C  18,N  17)     -3.7347         0.017840   
    323. D(C  16,N  19,C  18,H  23)    116.2701         0.017840   
    324. D(H  24,N  19,C  16,H  22)      2.1293         0.024283   
    325. D(C  18,N  19,C  16,H  22)   -173.5053         0.024283   
    326. D(H  24,N  19,C  16,C  15)    177.3411         0.024283   
    327. D(H  24,N  19,C  18,H  23)    -59.3557         0.017840   
    328. D(C  18,N  19,C  16,C  15)      1.7065         0.024283   
    329. D(C  33,O  25,Co  0,O  26)     97.5258         0.010637   
    330. D(C  33,O  25,Co  0,N   7)   -176.7794         0.010637   
    331. D(C  33,O  25,Co  0,N  17)    -83.4625         0.010637   
    332. D(C  33,O  25,Co  0,O  27)     11.8831         0.010637   
    333. D(C  33,O  25,Co  0,N  28)      9.8647         0.010637   
    334. D(C  33,O  25,Co  0,C  32)     71.1642         0.010637   
    335. D(C  33,O  25,Co  0,C  35)     -7.8191         0.010637   
    336. D(C  33,O  25,Co  0,C  38)     -4.0225         0.010637   
    337. D(C  33,O  25,Co  0,C  34)     -3.0838         0.010637   
    338. D(C  32,O  26,N  17,C  15)    -95.0310         0.001500   
    339. D(C  32,O  26,Co  0,C  33)    -56.2569         0.011586   
    340. D(C  32,O  26,Co  0,O  27)     89.6410         0.011586   
    341. D(C  32,O  26,Co  0,C  34)     62.4730         0.011586   
    342. D(C  32,O  26,Co  0,C  35)    -24.8801         0.011586   
    343. D(C  32,O  26,Co  0,N   7)   -178.3130         0.011586   
    344. D(C  32,O  26,N  17,C  18)     72.1381         0.001500   
    345. D(C  32,O  26,Co  0,C  38)     30.4493         0.011586   
    346. D(C  32,O  26,Co  0,N  28)      2.8191         0.011586   
    347. D(C  32,O  26,Co  0,O  25)    -84.6720         0.011586   
    348. D(C  34,O  27,Co  0,N   7)    170.9654         0.010683   
    349. D(C  34,O  27,Co  0,N  17)     77.6481         0.010683   
    350. D(C  34,O  27,Co  0,O  25)    -17.6852         0.010683   
    351. D(C  34,O  27,Co  0,O  26)   -103.3265         0.010683   
    352. D(C  34,O  27,Co  0,N  28)    -15.6656         0.010683   
    353. D(C  34,O  27,Co  0,C  32)    -76.8706         0.010683   
    354. D(C  34,O  27,Co  0,C  33)     -7.5832         0.010683   
    355. D(C  34,O  27,Co  0,C  35)      1.0766         0.010683   
    356. D(C  34,O  27,Co  0,C  38)     -0.9463         0.010683   
    357. D(C  41,N  28,Co  0,O  25)     86.8183         0.004883   
    358. D(C  38,N  28,Co  0,C  32)    117.0963         0.004883   
    359. D(C  38,N  28,Co  0,C  35)   -124.0768         0.004883   
    360. D(C  41,N  28,Co  0,N   7)    -12.7403         0.004883   
    361. D(C  38,N  28,Co  0,C  34)     17.3828         0.004883   
    362. D(C  41,N  28,Co  0,O  27)    -92.9809         0.004883   
    363. D(C  38,N  28,Co  0,O  27)     25.7369         0.004883   
    364. D(C  35,N  28,Co  0,O  26)   -120.2592         0.004883   
    365. D(C  35,N  28,Co  0,C  33)    -24.9104         0.004883   
    366. D(C  41,N  28,Co  0,C  34)   -101.3349         0.004883   
    367. D(C  38,N  28,Co  0,C  33)   -148.9872         0.004883   
    368. D(C  41,N  28,Co  0,N  17)    176.8136         0.004883   
    369. D(C  41,N  28,Co  0,O  26)     -3.0538         0.004883   
    370. D(C  41,N  28,Co  0,C  32)     -1.6214         0.004883   
    371. D(C  38,N  28,Co  0,O  25)   -154.4640         0.004883   
    372. D(C  41,N  28,Co  0,C  33)     92.2951         0.004883   
    373. D(C  35,N  28,Co  0,C  34)    141.4596         0.004883   
    374. D(C  41,N  28,Co  0,C  35)    117.2054         0.004883   
    375. D(C  41,N  28,Co  0,C  38)   -118.7178         0.004883   
    376. D(C  35,N  28,Co  0,O  27)    149.8137         0.004883   
    377. D(C  35,N  28,Co  0,C  32)   -118.8269         0.004883   
    378. D(C  38,N  28,Co  0,N   7)    105.9775         0.004883   
    379. D(C  35,N  28,Co  0,O  25)    -30.3872         0.004883   
    380. D(C  38,N  28,Co  0,N  17)    -64.4686         0.004883   
    381. D(C  35,N  28,Co  0,N   7)   -129.9457         0.004883   
    382. D(C  35,N  28,Co  0,N  17)     59.6082         0.004883   
    383. D(C  35,N  28,Co  0,C  38)    124.0768         0.004883   
    384. D(C  38,N  28,Co  0,O  26)    115.6640         0.004883   
    385. D(O  30,C  32,Co  0,O  27)    -94.7348         0.001523   
    386. D(C  41,C  32,Co  0,O  25)    -86.9584         0.001523   
    387. D(C  41,C  32,Co  0,N  17)     -2.0482         0.001523   
    388. D(C  41,C  32,Co  0,C  34)     60.9267         0.001523   
    389. D(C  41,C  32,Co  0,N  28)      1.5851         0.001523   
    390. D(C  41,C  32,Co  0,O  26)    178.3714         0.001523   
    391. D(O  26,C  32,Co  0,O  25)     94.6702         0.001523   
    392. D(O  26,C  32,Co  0,C  33)    122.2041         0.001523   
    393. D(C  41,C  32,Co  0,C  38)     29.0281         0.001523   
    394. D(O  26,C  32,Co  0,C  38)   -149.3433         0.001523   
    395. D(O  26,C  32,Co  0,C  34)   -117.4448         0.001523   
    396. D(C  41,C  32,Co  0,N   7)   -179.8120         0.001523   
    397. D(O  26,C  32,Co  0,N  17)    179.5803         0.001523   
    398. D(O  30,C  32,Co  0,C  33)    117.7003         0.001523   
    399. D(O  30,C  32,Co  0,O  25)     90.1664         0.001523   
    400. D(C  41,C  32,O  26,Co  0)     -1.8091         0.040356   
    401. D(C  41,C  32,Co  0,O  27)     88.1405         0.001523   
    402. D(C  41,C  32,Co  0,C  33)    -59.4245         0.001523   
    403. D(O  30,C  32,Co  0,O  26)     -4.5039         0.001523   
    404. D(C  41,C  32,Co  0,C  35)    -26.2758         0.001523   
    405. D(O  26,C  32,Co  0,N  28)   -176.7863         0.001523   
    406. D(O  30,C  32,Co  0,N  17)    175.0765         0.001523   
    407. D(O  30,C  32,Co  0,N   7)     -2.6873         0.001523   
    408. D(O  26,C  32,Co  0,N   7)      1.8165         0.001523   
    409. D(O  30,C  32,O  26,Co  0)    178.0373         0.040356   
    410. D(O  30,C  32,Co  0,C  35)    150.8489         0.001523   
    411. D(O  26,C  32,Co  0,O  27)    -90.2310         0.001523   
    412. D(O  30,C  32,Co  0,C  34)   -121.9486         0.001523   
    413. D(O  30,C  32,Co  0,N  28)    178.7099         0.001523   
    414. D(O  26,C  32,Co  0,C  35)    155.3527         0.001523   
    415. D(O  30,C  32,Co  0,C  38)   -153.8472         0.001523   
    416. D(O  25,C  33,Co  0,N   7)      3.7989         0.001532   
    417. D(O  25,C  33,Co  0,N  17)     95.8115         0.001532   
    418. D(C  35,C  33,Co  0,C  38)      9.0916         0.001532   
    419. D(O  25,C  33,Co  0,O  27)   -177.9151         0.001532   
    420. D(O  25,C  33,Co  0,N  28)   -168.5215         0.001532   
    421. D(C  35,C  33,Co  0,O  27)     14.8384         0.001532   
    422. D(O  25,C  33,Co  0,C  34)    178.0815         0.001532   
    423. D(O  25,C  33,Co  0,C  35)    167.2465         0.001532   
    424. D(C  35,C  33,Co  0,N   7)   -163.4476         0.001532   
    425. D(O  31,C  33,Co  0,N   7)     54.3496         0.001532   
    426. D(O  31,C  33,Co  0,N  17)    146.3621         0.001532   
    427. D(O  31,C  33,Co  0,O  25)     50.5507         0.001532   
    428. D(O  31,C  33,Co  0,O  26)    -32.7250         0.001532   
    429. D(O  31,C  33,Co  0,O  27)   -127.3645         0.001532   
    430. D(O  31,C  33,Co  0,N  28)   -117.9708         0.001532   
    431. D(O  31,C  33,Co  0,C  32)    -54.9121         0.001532   
    432. D(O  31,C  33,Co  0,C  34)   -131.3678         0.001532   
    433. D(O  31,C  33,Co  0,C  35)   -142.2028         0.001532   
    434. D(O  25,C  33,Co  0,C  38)    176.3381         0.001532   
    435. D(O  31,C  33,Co  0,C  38)   -133.1112         0.001532   
    436. D(C  35,C  33,Co  0,N  17)    -71.4350         0.001532   
    437. D(C  35,C  33,Co  0,O  25)   -167.2465         0.001532   
    438. D(O  25,C  33,Co  0,C  32)   -105.4628         0.001532   
    439. D(C  35,C  33,Co  0,O  26)    109.4779         0.001532   
    440. D(C  35,C  33,Co  0,N  28)     24.2320         0.001532   
    441. D(C  35,C  33,Co  0,C  32)     87.2907         0.001532   
    442. D(O  25,C  33,Co  0,O  26)    -83.2756         0.001532   
    443. D(C  35,C  33,Co  0,C  34)     10.8350         0.001532   
    444. D(O  31,C  33,O  25,Co  0)   -157.3815         0.033670   
    445. D(C  35,C  33,O  25,Co  0)     13.8478         0.033670   
    446. D(C  38,C  34,O  27,Co  0)      1.7034         0.032982   
    447. D(O  27,C  34,Co  0,N  17)   -101.1404         0.001525   
    448. D(O  27,C  34,Co  0,O  25)    176.8472         0.001525   
    449. D(C  38,C  34,Co  0,C  32)    -76.9574         0.001525   
    450. D(O  27,C  34,Co  0,N  28)    161.8894         0.001525   
    451. D(O  27,C  34,Co  0,C  32)    101.4990         0.001525   
    452. D(C  38,C  34,Co  0,O  25)     -1.6092         0.001525   
    453. D(O  27,C  34,Co  0,C  35)   -179.0133         0.001525   
    454. D(O  27,C  34,Co  0,C  38)    178.4564         0.001525   
    455. D(O  29,C  34,Co  0,N   7)     14.3719         0.001525   
    456. D(O  29,C  34,Co  0,N  17)    -76.3847         0.001525   
    457. D(O  29,C  34,Co  0,O  25)   -158.3971         0.001525   
    458. D(O  29,C  34,Co  0,O  26)    102.8300         0.001525   
    459. D(O  29,C  34,Co  0,O  27)     24.7557         0.001525   
    460. D(O  29,C  34,Co  0,N  28)   -173.3549         0.001525   
    461. D(O  29,C  34,Co  0,C  32)    126.2547         0.001525   
    462. D(O  29,C  34,Co  0,C  33)   -160.0716         0.001525   
    463. D(O  29,C  34,Co  0,C  35)   -154.2576         0.001525   
    464. D(O  29,C  34,Co  0,C  38)   -156.7879         0.001525   
    465. D(C  38,C  34,Co  0,N   7)    171.1598         0.001525   
    466. D(O  27,C  34,Co  0,C  33)    175.1727         0.001525   
    467. D(C  38,C  34,Co  0,N  17)     80.4032         0.001525   
    468. D(C  38,C  34,Co  0,O  26)   -100.3821         0.001525   
    469. D(C  38,C  34,Co  0,O  27)   -178.4564         0.001525   
    470. D(O  27,C  34,Co  0,O  26)     78.0743         0.001525   
    471. D(C  38,C  34,Co  0,N  28)    -16.5670         0.001525   
    472. D(C  38,C  34,Co  0,C  33)     -3.2837         0.001525   
    473. D(C  38,C  34,Co  0,C  35)      2.5303         0.001525   
    474. D(O  27,C  34,Co  0,N   7)    -10.3838         0.001525   
    475. D(O  29,C  34,O  27,Co  0)   -169.4775         0.032982   
    476. D(H  37,C  35,C  33,O  31)      7.8843         0.014668   
    477. D(N  28,C  35,Co  0,N  17)   -118.1434         0.001518   
    478. D(N  28,C  35,Co  0,O  25)    144.5992         0.001518   
    479. D(H  36,C  35,C  33,O  25)     78.2559         0.014668   
    480. D(N  28,C  35,Co  0,O  27)    -33.3010         0.001518   
    481. D(N  28,C  35,Co  0,C  32)     51.4418         0.001518   
    482. D(N  28,C  35,Co  0,C  33)    137.6348         0.001518   
    483. D(N  28,C  35,Co  0,C  34)    -32.7974         0.001518   
    484. D(N  28,C  35,Co  0,C  38)    -31.1423         0.001518   
    485. D(C  33,C  35,Co  0,N   7)     31.2329         0.001518   
    486. D(H  37,C  35,N  28,C  38)    -75.8958         0.017364   
    487. D(C  33,C  35,Co  0,O  25)      6.9644         0.001518   
    488. D(C  33,C  35,Co  0,O  26)    -75.1902         0.001518   
    489. D(H  36,C  35,N  28,Co  0)    -73.8559         0.017364   
    490. D(C  33,C  35,Co  0,N  28)   -137.6348         0.001518   
    491. D(C  33,C  35,Co  0,C  32)    -86.1930         0.001518   
    492. D(Co  0,C  35,N  28,C  41)   -116.2397         0.017364   
    493. D(C  33,C  35,Co  0,C  38)   -168.7772         0.001518   
    494. D(H  36,C  35,Co  0,N   7)    -76.0108         0.001518   
    495. D(H  36,C  35,Co  0,N  17)     -3.0220         0.001518   
    496. D(H  36,C  35,Co  0,O  25)   -100.2794         0.001518   
    497. D(H  36,C  35,Co  0,O  26)    177.5661         0.001518   
    498. D(H  36,C  35,Co  0,O  27)     81.8205         0.001518   
    499. D(H  37,C  35,Co  0,O  26)     30.3427         0.001518   
    500. D(H  36,C  35,Co  0,C  32)    166.5632         0.001518   
    501. D(H  36,C  35,Co  0,C  33)   -107.2437         0.001518   
    502. D(H  36,C  35,Co  0,C  34)     82.3240         0.001518   
    503. D(H  36,C  35,Co  0,C  38)     83.9791         0.001518   
    504. D(H  37,C  35,Co  0,N   7)    136.7658         0.001518   
    505. D(H  37,C  35,Co  0,N  17)   -150.2453         0.001518   
    506. D(H  36,C  35,Co  0,N  28)    115.1214         0.001518   
    507. D(H  37,C  35,Co  0,O  25)    112.4973         0.001518   
    508. D(H  37,C  35,Co  0,O  27)    -65.4029         0.001518   
    509. D(H  37,C  35,Co  0,N  28)    -32.1019         0.001518   
    510. D(H  37,C  35,Co  0,C  32)     19.3399         0.001518   
    511. D(H  37,C  35,Co  0,C  33)    105.5329         0.001518   
    512. D(H  37,C  35,Co  0,C  34)    -64.8993         0.001518   
    513. D(H  37,C  35,Co  0,C  38)    -63.2443         0.001518   
    514. D(C  33,C  35,Co  0,C  34)   -170.4322         0.001518   
    515. D(Co  0,C  35,N  28,C  38)    118.0037         0.017364   
    516. D(C  33,C  35,N  28,Co  0)     41.0305         0.017364   
    517. D(C  33,C  35,N  28,C  38)    159.0342         0.017364   
    518. D(C  33,C  35,Co  0,O  27)   -170.9358         0.001518   
    519. D(C  33,C  35,N  28,C  41)    -75.2092         0.017364   
    520. D(H  36,C  35,N  28,C  38)     44.1478         0.017364   
    521. D(H  36,C  35,N  28,C  41)    169.9045         0.017364   
    522. D(C  33,C  35,Co  0,N  17)    104.2218         0.001518   
    523. D(H  37,C  35,N  28,Co  0)    166.1005         0.017364   
    524. D(H  37,C  35,N  28,C  41)     49.8608         0.017364   
    525. D(Co  0,C  35,C  33,O  25)     -9.1112         0.014668   
    526. D(Co  0,C  35,C  33,O  31)    162.0169         0.014668   
    527. D(N  28,C  35,C  33,Co  0)    -29.2075         0.014668   
    528. D(N  28,C  35,C  33,O  25)    -38.3187         0.014668   
    529. D(N  28,C  35,C  33,O  31)    132.8094         0.014668   
    530. D(N  28,C  35,Co  0,O  26)     62.4447         0.001518   
    531. D(H  36,C  35,C  33,Co  0)     87.3671         0.014668   
    532. D(H  36,C  35,C  33,O  31)   -110.6160         0.014668   
    533. D(H  37,C  35,C  33,Co  0)   -154.1326         0.014668   
    534. D(N  28,C  35,Co  0,N   7)    168.8678         0.001518   
    535. D(H  37,C  35,C  33,O  25)   -163.2438         0.014668   
    536. D(H  40,C  38,C  34,O  29)     67.8491         0.013788   
    537. D(N  28,C  38,Co  0,N  17)    113.9731         0.001511   
    538. D(N  28,C  38,Co  0,O  25)     28.2994         0.001511   
    539. D(N  28,C  38,Co  0,O  26)    -66.3706         0.001511   
    540. D(N  28,C  38,Co  0,O  27)   -149.8950         0.001511   
    541. D(N  28,C  38,Co  0,C  32)    -53.0095         0.001511   
    542. D(N  28,C  38,Co  0,C  33)     26.3689         0.001511   
    543. D(N  28,C  38,C  34,Co  0)     20.0226         0.013788   
    544. D(N  28,C  38,Co  0,C  35)     32.3886         0.001511   
    545. D(C  34,C  38,Co  0,N   7)    -15.9251         0.001511   
    546. D(H  40,C  38,N  28,C  35)    -24.5593         0.015773   
    547. D(C  34,C  38,Co  0,O  25)    179.0277         0.001511   
    548. D(C  34,C  38,Co  0,O  26)     84.3576         0.001511   
    549. D(H  39,C  38,N  28,Co  0)   -151.1900         0.015773   
    550. D(C  34,C  38,Co  0,N  28)    150.7283         0.001511   
    551. D(C  34,C  38,Co  0,C  32)     97.7188         0.001511   
    552. D(C  34,C  38,Co  0,C  33)    177.0972         0.001511   
    553. D(C  34,C  38,Co  0,C  35)   -176.8832         0.001511   
    554. D(H  39,C  38,Co  0,N   7)   -114.5973         0.001511   
    555. D(H  39,C  38,Co  0,N  17)    166.0290         0.001511   
    556. D(H  40,C  38,Co  0,C  33)    -78.3257         0.001511   
    557. D(H  39,C  38,Co  0,O  26)    -14.3146         0.001511   
    558. D(H  39,C  38,Co  0,O  27)    -97.8390         0.001511   
    559. D(H  40,C  38,Co  0,O  26)   -171.0652         0.001511   
    560. D(H  39,C  38,Co  0,C  32)     -0.9535         0.001511   
    561. D(H  39,C  38,Co  0,C  33)     78.4249         0.001511   
    562. D(H  39,C  38,Co  0,C  34)    -98.6723         0.001511   
    563. D(H  39,C  38,Co  0,C  35)     84.4445         0.001511   
    564. D(H  40,C  38,Co  0,N   7)     88.6521         0.001511   
    565. D(H  40,C  38,Co  0,N  17)      9.2785         0.001511   
    566. D(H  39,C  38,Co  0,N  28)     52.0560         0.001511   
    567. D(H  40,C  38,Co  0,O  25)    -76.3951         0.001511   
    568. D(H  40,C  38,Co  0,O  27)    105.4104         0.001511   
    569. D(H  40,C  38,Co  0,N  28)   -104.6946         0.001511   
    570. D(H  39,C  38,Co  0,O  25)     80.3554         0.001511   
    571. D(H  40,C  38,Co  0,C  32)   -157.7041         0.001511   
    572. D(H  40,C  38,Co  0,C  34)    104.5772         0.001511   
    573. D(H  40,C  38,Co  0,C  35)    -72.3060         0.001511   
    574. D(Co  0,C  38,N  28,C  35)   -116.0276         0.015773   
    575. D(Co  0,C  38,N  28,C  41)    118.0455         0.015773   
    576. D(C  34,C  38,N  28,Co  0)    -28.5438         0.015773   
    577. D(C  34,C  38,N  28,C  35)   -144.5714         0.015773   
    578. D(C  34,C  38,Co  0,O  27)      0.8333         0.001511   
    579. D(C  34,C  38,N  28,C  41)     89.5017         0.015773   
    580. D(H  39,C  38,N  28,C  35)     92.7824         0.015773   
    581. D(H  39,C  38,N  28,C  41)    -33.1445         0.015773   
    582. D(C  34,C  38,Co  0,N  17)    -95.2987         0.001511   
    583. D(H  40,C  38,N  28,Co  0)     91.4683         0.015773   
    584. D(H  40,C  38,N  28,C  41)   -150.4863         0.015773   
    585. D(Co  0,C  38,C  34,O  27)     -1.0881         0.013788   
    586. D(N  28,C  38,Co  0,C  34)   -150.7283         0.001511   
    587. D(Co  0,C  38,C  34,O  29)    170.0153         0.013788   
    588. D(N  28,C  38,C  34,O  27)     18.9345         0.013788   
    589. D(N  28,C  38,C  34,O  29)   -169.9621         0.013788   
    590. D(H  39,C  38,C  34,Co  0)    142.9952         0.013788   
    591. D(H  39,C  38,C  34,O  27)    141.9070         0.013788   
    592. D(H  39,C  38,C  34,O  29)    -46.9895         0.013788   
    593. D(H  40,C  38,C  34,Co  0)   -102.1661         0.013788   
    594. D(N  28,C  38,Co  0,N   7)   -166.6533         0.001511   
    595. D(H  40,C  38,C  34,O  27)   -103.2543         0.013788   
    596. D(C  32,C  41,N  28,Co  0)      2.7324         0.012401   
    597. D(C  32,C  41,N  28,C  35)    115.9246         0.012401   
    598. D(H  43,C  41,C  32,Co  0)   -125.1731         0.016040   
    599. D(H  42,C  41,N  28,Co  0)   -117.3328         0.012401   
    600. D(H  42,C  41,N  28,C  35)     -4.1405         0.012401   
    601. D(H  42,C  41,N  28,C  38)    125.3759         0.012401   
    602. D(H  43,C  41,N  28,Co  0)    122.0031         0.012401   
    603. D(H  43,C  41,N  28,C  35)   -124.8047         0.012401   
    604. D(H  43,C  41,N  28,C  38)      4.7117         0.012401   
    605. D(N  28,C  41,C  32,Co  0)     -1.9255         0.016040   
    606. D(N  28,C  41,C  32,O  26)     -0.8151         0.016040   
    607. D(N  28,C  41,C  32,O  30)    179.3399         0.016040   
    608. D(H  42,C  41,C  32,Co  0)    121.0208         0.016040   
    609. D(H  42,C  41,C  32,O  26)    122.1312         0.016040   
    610. D(C  32,C  41,N  28,C  38)   -114.5589         0.012401   
    611. D(H  42,C  41,C  32,O  30)    -57.7138         0.016040   
    612. D(H  43,C  41,C  32,O  26)   -124.0627         0.016040   
    613. D(H  43,C  41,C  32,O  30)     56.0924         0.016040   
    614. C_1(C   1)                      1.7592         1.000000 C 
    615. C_0(C   1)                     -1.6859         1.000000 C 
    616. C_2(C   1)                     -8.2196         1.000000 C 
    617. C_2(C   2)                     -9.7286         1.000000 C 
    618. C_0(C   2)                     -1.4589         1.000000 C 
    619. C_1(C   2)                      1.8702         1.000000 C 
    620. C_2(C  13)                     -6.0356         1.000000 C 
    621. C_1(C  13)                     -0.9228         1.000000 C 
    622. C_0(C  13)                     -6.8689         1.000000 C 
    623. C_0(C  14)                     -6.5139         1.000000 C 
    624. C_2(C  14)                     -7.4026         1.000000 C 
    625. C_1(C  14)                     -1.5098         1.000000 C 
    -----------------------------------------------------------------

Number of atoms                         .... 50
Number of degrees of freedom            .... 625

         *************************************************************
         *                GEOMETRY OPTIMIZATION CYCLE   1            *
         *************************************************************
---------------------------------
CARTESIAN COORDINATES (ANGSTROEM)
---------------------------------
  Co    -6.705770    1.120130  -10.234530
  C     -1.685930    1.759170   -8.219620
  C     -1.458930    1.870170   -9.728620
  C     -2.760090    1.255930  -10.345980
  C     -3.880040    0.869140   -9.695590
  N     -2.978980    1.040490  -11.713950
  C     -4.305240    0.483930  -11.904550
  N     -4.904680    0.429990  -10.572650
  H     -0.581740    1.252980  -10.016360
  H     -1.312910    2.920020  -10.058890
  H     -2.298780    1.231390  -12.463350
  H     -4.046210    0.953330   -8.634800
  H     -4.884750    1.147380  -12.575590
  C     -6.868930   -0.922830   -6.035620
  C     -6.513930   -1.509830   -7.402620
  C     -7.463730   -1.506530   -8.575100
  C     -8.348340   -2.482530   -8.687590
  N     -7.444380   -0.698320   -9.785800
  C     -8.373660   -1.351610  -10.691920
  N     -8.953130   -2.428240   -9.942150
  H     -6.125040   -2.542860   -7.264300
  H     -5.638760   -0.916410   -7.738640
  H     -8.528760   -3.265430   -7.961220
  H     -7.842320   -1.730560  -11.590550
  H     -9.649780   -3.098180  -10.297620
  O     -6.381370    1.428330   -8.471760
  O     -6.014520    2.738890  -10.637260
  O     -7.186550    0.899880  -11.973920
  N     -8.435620    2.010990   -9.983080
  O     -9.009400    0.794410  -13.267430
  O     -6.455730    4.908700  -10.767670
  O     -7.411030    2.515540   -6.803630
  C     -6.845330    3.773230  -10.548580
  C     -7.489960    1.876830   -7.840600
  C     -8.509260    1.092110  -12.195250
  C     -8.781000    1.722390   -8.587610
  H     -9.094460    0.665350   -8.490230
  H     -9.611650    2.348190   -8.191610
  C     -9.358930    1.488090  -11.013820
  H    -10.136960    2.230460  -11.297200
  H     -9.935700    0.608340  -10.665620
  C     -8.247810    3.491460  -10.173120
  H     -8.476910    4.073600   -9.251550
  H     -8.887020    3.917570  -10.977480
  H     -7.178360    0.126960   -6.087590
  H     -5.992720   -0.996700   -5.357060
  H     -7.705790   -1.505350   -5.596980
  H     -1.823720    0.702950   -7.898670
  H     -2.531350    2.398430   -7.884390
  H     -0.780120    2.140500   -7.703390

----------------------------
CARTESIAN COORDINATES (A.U.)
----------------------------
  NO LB      ZA    FRAG     MASS         X           Y           Z
   0 Co   27.0000    0    58.930  -12.672069    2.116739  -19.340459
   1 C     6.0000    0    12.011   -3.185946    3.324350  -15.532831
   2 C     6.0000    0    12.011   -2.756978    3.534109  -18.384427
   3 C     6.0000    0    12.011   -5.215814    2.373364  -19.551069
   4 C     6.0000    0    12.011   -7.332213    1.642437  -18.322010
   5 N     7.0000    0    14.007   -5.629456    1.966241  -22.136157
   6 C     6.0000    0    12.011   -8.135725    0.914495  -22.496339
   7 N     7.0000    0    14.007   -9.268502    0.812563  -19.979413
   8 H     1.0000    0     1.008   -1.099329    2.367789  -18.928177
   9 H     1.0000    0     1.008   -2.481040    5.518038  -19.008547
  10 H     1.0000    0     1.008   -4.344065    2.326990  -23.552318
  11 H     1.0000    0     1.008   -7.646229    1.801533  -16.317407
  12 H     1.0000    0     1.008   -9.230840    2.168234  -23.764421
  13 C     6.0000    0    12.011  -12.980397   -1.743896  -11.405669
  14 C     6.0000    0    12.011  -12.309544   -2.853165  -13.988924
  15 C     6.0000    0    12.011  -14.104406   -2.846929  -16.204591
  16 C     6.0000    0    12.011  -15.776076   -4.691302  -16.417166
  17 N     7.0000    0    14.007  -14.067839   -1.319634  -18.492482
  18 C     6.0000    0    12.011  -15.823924   -2.554173  -20.204801
  19 N     7.0000    0    14.007  -16.918964   -4.588709  -18.787941
  20 H     1.0000    0     1.008  -11.574648   -4.805309  -13.727538
  21 H     1.0000    0     1.008  -10.655712   -1.731764  -14.623910
  22 H     1.0000    0     1.008  -16.117021   -6.170768  -15.044525
  23 H     1.0000    0     1.008  -14.819837   -3.270284  -21.902965
  24 H     1.0000    0     1.008  -18.235441   -5.854712  -19.459682
  25 O     8.0000    0    15.999  -12.059042    2.699153  -16.009306
  26 O     8.0000    0    15.999  -11.365796    5.175752  -20.101508
  27 O     8.0000    0    15.999  -13.580611    1.700527  -22.627430
  28 N     7.0000    0    14.007  -15.941012    3.800220  -18.865287
  29 O     8.0000    0    15.999  -17.025299    1.501217  -25.071809
  30 O     8.0000    0    15.999  -12.199562    9.276099  -20.347947
  31 O     8.0000    0    15.999  -14.004817    4.753682  -12.856997
  32 C     6.0000    0    12.011  -12.935799    7.130371  -19.933927
  33 C     6.0000    0    12.011  -14.153973    3.546695  -14.816587
  34 C     6.0000    0    12.011  -16.080171    2.063789  -23.045683
  35 C     6.0000    0    12.011  -16.593685    3.254845  -16.228231
  36 H     1.0000    0     1.008  -17.186039    1.257329  -16.044210
  37 H     1.0000    0     1.008  -18.163386    4.437436  -15.479899
  38 C     6.0000    0    12.011  -17.685815    2.812083  -20.813103
  39 H     1.0000    0     1.008  -19.156078    4.214959  -21.348614
  40 H     1.0000    0     1.008  -18.775752    1.149596  -20.155101
  41 C     6.0000    0    12.011  -15.586102    6.597903  -19.224411
  42 H     1.0000    0     1.008  -16.019038    7.697988  -17.482896
  43 H     1.0000    0     1.008  -16.794034    7.403134  -20.744431
  44 H     1.0000    0     1.008  -13.565134    0.239920  -11.503878
  45 H     1.0000    0     1.008  -11.324600   -1.883490  -10.123376
  46 H     1.0000    0     1.008  -14.561833   -2.844699  -10.576759
  47 H     1.0000    0     1.008   -3.446331    1.328383  -14.926323
  48 H     1.0000    0     1.008   -4.783558    4.532376  -14.899338
  49 H     1.0000    0     1.008   -1.474213    4.044959  -14.557297

--------------------------------
INTERNAL COORDINATES (ANGSTROEM)
--------------------------------
 Co     0   0   0     0.000000000000     0.00000000     0.00000000
 C      1   0   0     5.446744720959     0.00000000     0.00000000
 C      2   1   0     1.530010130685    77.31439579     0.00000000
 C      3   2   1     1.565707984523   103.71710712   342.86962610
 C      4   3   2     1.351629260818   127.67068263     7.02283425
 N      4   3   2     1.402023233260   125.08228969   185.20327260
 C      6   4   3     1.450880071267   109.25893282   181.17310892
 N      5   4   3     1.418440726890   112.93058240   176.31388133
 H      3   2   1     1.110486424861   109.41621467   225.93203833
 H      3   2   1     1.110218508133   112.42750422   103.19789084
 H      6   4   3     1.029910292210   125.33588931     2.19350709
 H      5   4   3     1.077021749595   125.40898576     1.54531556
 H      7   6   4     1.107380884881   109.15654205   122.00711304
 C     12   5   4     4.271236497362   131.83491510   197.34352828
 C     14  12   5     1.529471477341    58.08252424    20.21155613
 C     15  14  12     1.508920236593   123.19911054   250.96347663
 C     16  15  14     1.322030579147   119.05771708   274.85148087
 N     16  15  14     1.455806414535   129.72140929   106.55569037
 C     18  16  15     1.453066618191   105.09987131   165.71677213
 N     17  16  15     1.393785902425   109.76609135   190.67876578
 H     15  14  12     1.112438238915   109.05078102   121.99499153
 H     15  14  12     1.109495049876   104.38867366    10.21676445
 H     17  16  15     1.083096100676   126.01784748     5.77199454
 H     19  18  16     1.110612972642   110.61012968   243.85970028
 H     20  17  16     1.029805684098   125.37333900   177.34111106
 O      1   2   3     1.818675527108    57.12341665   193.11014087
 O      1   2   3     1.805658315684    67.94525441   297.98375823
 O      1   2   3     1.818003587180   127.72514322     9.42695583
 N      1   2   3     1.961947926067   135.39047249   236.25263437
 O     28   1   2     2.237649249436   140.73367647   187.41321322
 O     27   1   2     2.218050600933   144.48445292   222.66082429
 O     26   1   2     2.241625079401   136.18217519   146.13286630
 C     31  27   1     1.220278947208    30.98410744   356.97079154
 C     32  26   1     1.220445488295    31.08450016    31.17937885
 C     30  28   1     1.219973467744    31.40527127    15.35416574
 C     29   1   2     1.466258444238   103.90358783   294.52366350
 H     36  29   1     1.106830428566   109.78040820   286.14414256
 H     36  29   1     1.112843682868   113.81606732   166.10049205
 C     29   1   2     1.479307511540   107.48823871   170.44684478
 H     39  29   1     1.112091777777   112.22532206   208.81004599
 H     39  29   1     1.108091573562   112.74072723    91.46825587
 C     33  31  27     1.478957299891   121.70996992   179.83980951
 H     42  33  31     1.113851450823   107.78931674   302.28624063
 H     42  33  31     1.112274321289   106.76180589    56.09235585
 H     14  12   5     1.095676434857    74.74668596   249.88337812
 H     14  12   5     1.110695464383    83.08698707   138.63166064
 H     14  12   5     1.109986152887   165.75440940   352.94352835
 H      2   1   3     1.112472774948    83.17606384   245.74777141
 H      2   1   3     1.111650789097    58.54175262   125.48966608
 H      2   1   3     1.110134108070   164.64816023   112.99214332

---------------------------
INTERNAL COORDINATES (A.U.)
---------------------------
 Co     0   0   0     0.000000000000     0.00000000     0.00000000
 C      1   0   0    10.292855843995     0.00000000     0.00000000
 C      2   1   0     2.891300129120    77.31439579     0.00000000
 C      3   2   1     2.958759296443   103.71710712   342.86962610
 C      4   3   2     2.554209137541   127.67068263     7.02283425
 N      4   3   2     2.649439944256   125.08228969   185.20327260
 C      6   4   3     2.741765987859   109.25893282   181.17310892
 N      5   4   3     2.680464511022   112.93058240   176.31388133
 H      3   2   1     2.098515218424   109.41621467   225.93203833
 H      3   2   1     2.098008929181   112.42750422   103.19789084
 H      6   4   3     1.946248394784   125.33588931     2.19350709
 H      5   4   3     2.035276147011   125.40898576     1.54531556
 H      7   6   4     2.092646598365   109.15654205   122.00711304
 C     12   5   4     8.071467233224   131.83491510   197.34352828
 C     14  12   5     2.890282221819    58.08252424    20.21155613
 C     15  14  12     2.851446005093   123.19911054   250.96347663
 C     16  15  14     2.498275735257   119.05771708   274.85148087
 N     16  15  14     2.751075427476   129.72140929   106.55569037
 C     18  16  15     2.745897962723   105.09987131   165.71677213
 N     17  16  15     2.633873644904   109.76609135   190.67876578
 H     15  14  12     2.102203612451   109.05078102   121.99499153
 H     15  14  12     2.096641791207   104.38867366    10.21676445
 H     17  16  15     2.046755006996   126.01784748     5.77199454
 H     19  18  16     2.098754359073   110.61012968   243.85970028
 H     20  17  16     1.946050714100   125.37333900   177.34111106
 O      1   2   3     3.436798672698    57.12341665   193.11014087
 O      1   2   3     3.412199708081    67.94525441   297.98375823
 O      1   2   3     3.435528890257   127.72514322     9.42695583
 N      1   2   3     3.707544269282   135.39047249   236.25263437
 O     28   1   2     4.228544265208   140.73367647   187.41321322
 O     27   1   2     4.191508186943   144.48445292   222.66082429
 O     26   1   2     4.236057494998   136.18217519   146.13286630
 C     31  27   1     2.305993017214    30.98410744   356.97079154
 C     32  26   1     2.306307734258    31.08450016    31.17937885
 C     30  28   1     2.305415744687    31.40527127    15.35416574
 C     29   1   2     2.770826901160   103.90358783   294.52366350
 H     36  29   1     2.091606386681   109.78040820   286.14414256
 H     36  29   1     2.102969790485   113.81606732   166.10049205
 C     29   1   2     2.795486064664   107.48823871   170.44684478
 H     39  29   1     2.101548895785   112.22532206   208.81004599
 H     39  29   1     2.093989605339   112.74072723    91.46825587
 C     33  31  27     2.794824260557   121.70996992   179.83980951
 H     42  33  31     2.104874195926   107.78931674   302.28624063
 H     42  33  31     2.101893853030   106.76180589    56.09235585
 H     14  12   5     2.070528393270    74.74668596   249.88337812
 H     14  12   5     2.098910245872    83.08698707   138.63166064
 H     14  12   5     2.097569841401   165.75440940   352.94352835
 H      2   1   3     2.102268876095    83.17606384   245.74777141
 H      2   1   3     2.100715547951    58.54175262   125.48966608
 H      2   1   3     2.097849436177   164.64816023   112.99214332

---------------------
BASIS SET INFORMATION
---------------------
There are 5 groups of distinct atoms

 Group   1 Type Co  : 17s11p7d1f contracted to 6s4p4d1f pattern {842111/6311/4111/1}
 Group   2 Type C   : 7s4p1d contracted to 3s2p1d pattern {511/31/1}
 Group   3 Type N   : 7s4p1d contracted to 3s2p1d pattern {511/31/1}
 Group   4 Type H   : 4s1p contracted to 2s1p pattern {31/1}
 Group   5 Type O   : 7s4p1d contracted to 3s2p1d pattern {511/31/1}

Atom   0Co   basis set group =>   1
Atom   1C    basis set group =>   2
Atom   2C    basis set group =>   2
Atom   3C    basis set group =>   2
Atom   4C    basis set group =>   2
Atom   5N    basis set group =>   3
Atom   6C    basis set group =>   2
Atom   7N    basis set group =>   3
Atom   8H    basis set group =>   4
Atom   9H    basis set group =>   4
Atom  10H    basis set group =>   4
Atom  11H    basis set group =>   4
Atom  12H    basis set group =>   4
Atom  13C    basis set group =>   2
Atom  14C    basis set group =>   2
Atom  15C    basis set group =>   2
Atom  16C    basis set group =>   2
Atom  17N    basis set group =>   3
Atom  18C    basis set group =>   2
Atom  19N    basis set group =>   3
Atom  20H    basis set group =>   4
Atom  21H    basis set group =>   4
Atom  22H    basis set group =>   4
Atom  23H    basis set group =>   4
Atom  24H    basis set group =>   4
Atom  25O    basis set group =>   5
Atom  26O    basis set group =>   5
Atom  27O    basis set group =>   5
Atom  28N    basis set group =>   3
Atom  29O    basis set group =>   5
Atom  30O    basis set group =>   5
Atom  31O    basis set group =>   5
Atom  32C    basis set group =>   2
Atom  33C    basis set group =>   2
Atom  34C    basis set group =>   2
Atom  35C    basis set group =>   2
Atom  36H    basis set group =>   4
Atom  37H    basis set group =>   4
Atom  38C    basis set group =>   2
Atom  39H    basis set group =>   4
Atom  40H    basis set group =>   4
Atom  41C    basis set group =>   2
Atom  42H    basis set group =>   4
Atom  43H    basis set group =>   4
Atom  44H    basis set group =>   4
Atom  45H    basis set group =>   4
Atom  46H    basis set group =>   4
Atom  47H    basis set group =>   4
Atom  48H    basis set group =>   4
Atom  49H    basis set group =>   4
---------------------------------
AUXILIARY/J BASIS SET INFORMATION
---------------------------------
There are 5 groups of distinct atoms

 Group   1 Type Co  : 19s5p5d3f3g contracted to 8s5p5d2f3g pattern {121111111/11111/11111/21/111}
 Group   2 Type C   : 12s5p4d2f1g contracted to 6s4p3d1f1g pattern {711111/2111/211/2/1}
 Group   3 Type N   : 12s5p4d2f1g contracted to 6s4p3d1f1g pattern {711111/2111/211/2/1}
 Group   4 Type H   : 5s2p1d contracted to 3s1p1d pattern {311/2/1}
 Group   5 Type O   : 12s5p4d2f1g contracted to 6s4p3d1f1g pattern {711111/2111/211/2/1}

Atom   0Co   basis set group =>   1
Atom   1C    basis set group =>   2
Atom   2C    basis set group =>   2
Atom   3C    basis set group =>   2
Atom   4C    basis set group =>   2
Atom   5N    basis set group =>   3
Atom   6C    basis set group =>   2
Atom   7N    basis set group =>   3
Atom   8H    basis set group =>   4
Atom   9H    basis set group =>   4
Atom  10H    basis set group =>   4
Atom  11H    basis set group =>   4
Atom  12H    basis set group =>   4
Atom  13C    basis set group =>   2
Atom  14C    basis set group =>   2
Atom  15C    basis set group =>   2
Atom  16C    basis set group =>   2
Atom  17N    basis set group =>   3
Atom  18C    basis set group =>   2
Atom  19N    basis set group =>   3
Atom  20H    basis set group =>   4
Atom  21H    basis set group =>   4
Atom  22H    basis set group =>   4
Atom  23H    basis set group =>   4
Atom  24H    basis set group =>   4
Atom  25O    basis set group =>   5
Atom  26O    basis set group =>   5
Atom  27O    basis set group =>   5
Atom  28N    basis set group =>   3
Atom  29O    basis set group =>   5
Atom  30O    basis set group =>   5
Atom  31O    basis set group =>   5
Atom  32C    basis set group =>   2
Atom  33C    basis set group =>   2
Atom  34C    basis set group =>   2
Atom  35C    basis set group =>   2
Atom  36H    basis set group =>   4
Atom  37H    basis set group =>   4
Atom  38C    basis set group =>   2
Atom  39H    basis set group =>   4
Atom  40H    basis set group =>   4
Atom  41C    basis set group =>   2
Atom  42H    basis set group =>   4
Atom  43H    basis set group =>   4
Atom  44H    basis set group =>   4
Atom  45H    basis set group =>   4
Atom  46H    basis set group =>   4
Atom  47H    basis set group =>   4
Atom  48H    basis set group =>   4
Atom  49H    basis set group =>   4
------------------------------------------------------------------------------
                           ORCA GTO INTEGRAL CALCULATION
                           -- RI-GTO INTEGRALS CHOSEN --
------------------------------------------------------------------------------
------------------------------------------------------------------------------
                   ___                                                        
                  /   \      - P O W E R E D   B Y -                         
                 /     \                                                     
                 |  |  |   _    _      __       _____    __    __             
                 |  |  |  | |  | |    /  \     |  _  \  |  |  /  |          
                  \  \/   | |  | |   /    \    | | | |  |  | /  /          
                 / \  \   | |__| |  /  /\  \   | |_| |  |  |/  /          
                |  |  |   |  __  | /  /__\  \  |    /   |      \           
                |  |  |   | |  | | |   __   |  |    \   |  |\   \          
                \     /   | |  | | |  |  |  |  | |\  \  |  | \   \       
                 \___/    |_|  |_| |__|  |__|  |_| \__\ |__|  \__/        
                                                                              
                      - O R C A' S   B I G   F R I E N D -                    
                                      &                                       
                       - I N T E G R A L  F E E D E R -                       
                                                                              
 v1 FN, 2020, v2 2021                                                         
------------------------------------------------------------------------------


Reading SHARK input file opt.SHARKINP.tmp ... ok
----------------------
SHARK INTEGRAL PACKAGE
----------------------

Number of atoms                             ...     50
Number of basis functions                   ...    533
Number of shells                            ...    243
Maximum angular momentum                    ...      3
Integral batch strategy                     ... SHARK/LIBINT Hybrid
RI-J (if used) integral strategy            ... SPLIT-RIJ (Revised 2003 algorithm where possible)
Printlevel                                  ...      1
Contraction scheme used                     ... SEGMENTED contraction
Coulomb Range Separation                    ... NOT USED
Exchange Range Separation                   ... NOT USED
Finite Nucleus Model                        ... NOT USED
Auxiliary Coulomb fitting basis             ... AVAILABLE
   # of basis functions in Aux-J            ...   1654
   # of shells in Aux-J                     ...    538
   Maximum angular momentum in Aux-J        ...      4
Auxiliary J/K fitting basis                 ... NOT available
Auxiliary Correlation fitting basis         ... NOT available
Auxiliary 'external' fitting basis          ... NOT available
Integral threshold                          ...     2.500000e-11
Primitive cut-off                           ...     2.500000e-12
Primitive pair pre-selection threshold      ...     2.500000e-12

Calculating pre-screening integrals         ... done (  0.1 sec) Dimension = 243
Organizing shell pair data                  ... done (  0.1 sec)
Shell pair information
Total number of shell pairs                 ...     29646
Shell pairs after pre-screening             ...     21883
Total number of primitive shell pairs       ...    111161
Primitive shell pairs kept                  ...     50468
          la=0 lb=0:   6550 shell pairs
          la=1 lb=0:   7882 shell pairs
          la=1 lb=1:   2418 shell pairs
          la=2 lb=0:   2838 shell pairs
          la=2 lb=1:   1706 shell pairs
          la=2 lb=2:    307 shell pairs
          la=3 lb=0:     99 shell pairs
          la=3 lb=1:     60 shell pairs
          la=3 lb=2:     22 shell pairs
          la=3 lb=3:      1 shell pairs

Calculating one electron integrals          ... done (  0.2 sec)
Calculating RI/J V-Matrix + Cholesky decomp.... done (  0.2 sec)
Calculating Nuclear repulsion               ... done (  0.0 sec) ENN=   3715.643654510314 Eh

SHARK setup successfully completed in   0.7 seconds

Maximum memory used throughout the entire GTOINT-calculation: 157.3 MB
-------------------------------------------------------------------------------
                                 ORCA SCF
-------------------------------------------------------------------------------

------------
SCF SETTINGS
------------
Hamiltonian:
 Density Functional     Method          .... DFT(GTOs)
 Exchange Functional    Exchange        .... B88
   X-Alpha parameter    XAlpha          ....  0.666667
   Becke's b parameter  XBeta           ....  0.004200
 Correlation Functional Correlation     .... P86
 LDA part of GGA corr.  LDAOpt          .... PW91-LDA
 Gradients option       PostSCFGGA      .... off
   Density functional embedding theory  .... OFF
 RI-approximation to the Coulomb term is turned on
   Number of AuxJ basis functions       .... 1654


General Settings:
 Integral files         IntName         .... opt
 Hartree-Fock type      HFTyp           .... RHF
 Total Charge           Charge          ....    0
 Multiplicity           Mult            ....    1
 Number of Electrons    NEL             ....  228
 Basis Dimension        Dim             ....  533
 Nuclear Repulsion      ENuc            ....   3715.6436545103 Eh

Convergence Acceleration:
 DIIS                   CNVDIIS         .... on
   Start iteration      DIISMaxIt       ....    12
   Startup error        DIISStart       ....  0.200000
   # of expansion vecs  DIISMaxEq       ....     5
   Bias factor          DIISBfac        ....   1.050
   Max. coefficient     DIISMaxC        ....  10.000
 Trust-Rad. Augm. Hess. CNVTRAH         .... auto
   Auto Start mean grad. ratio tolernc. ....  1.125000
   Auto Start start iteration           ....    20
   Auto Start num. interpolation iter.  ....    10
   Max. Number of Micro iterations      ....    16
   Max. Number of Macro iterations      .... Maxiter - #DIIS iter
   Number of Davidson start vectors     ....     2
   Converg. threshold I  (grad. norm)   ....   1.000e-05
   Converg. threshold II (energy diff.) ....   1.000e-08
[...]
      pz      :     0.048593  p :     0.117570
      px      :     0.041052
      py      :     0.027924
 11 H s       :     0.884414  s :     0.884414
      pz      :     0.043891  p :     0.074417
      px      :     0.013253
      py      :     0.017274
 12 H s       :     0.878172  s :     0.878172
      pz      :     0.036723  p :     0.072970
      px      :     0.017924
      py      :     0.018324
 13 C s       :     2.852816  s :     2.852816
      pz      :     1.014717  p :     3.162298
      px      :     1.063256
      py      :     1.084325
      dz2     :     0.014372  d :     0.066414
      dxz     :     0.018824
      dyz     :     0.009731
      dx2y2   :     0.016343
      dxy     :     0.007145
 14 C s       :     2.837659  s :     2.837659
      pz      :     1.018913  p :     3.122193
      px      :     1.041007
      py      :     1.062273
      dz2     :     0.024031  d :     0.087227
      dxz     :     0.024294
      dyz     :     0.012898
      dx2y2   :     0.015421
      dxy     :     0.010584
 15 C s       :     2.866625  s :     2.866625
      pz      :     0.984826  p :     3.019152
      px      :     1.035563
      py      :     0.998763
      dz2     :     0.030199  d :     0.125914
      dxz     :     0.021391
      dyz     :     0.033049
      dx2y2   :     0.019476
      dxy     :     0.021800
 16 C s       :     2.873656  s :     2.873656
      pz      :     0.935379  p :     3.038849
      px      :     1.038849
      py      :     1.064621
      dz2     :     0.036540  d :     0.110645
      dxz     :     0.021119
      dyz     :     0.024646
      dx2y2   :     0.014425
      dxy     :     0.013914
 17 N s       :     3.133122  s :     3.133122
      pz      :     1.151552  p :     3.706703
      px      :     1.271250
      py      :     1.283901
      dz2     :     0.010611  d :     0.056967
      dxz     :     0.011925
      dyz     :     0.020247
      dx2y2   :     0.006904
      dxy     :     0.007280
 18 C s       :     2.848213  s :     2.848213
      pz      :     1.018300  p :     2.930566
      px      :     0.978180
      py      :     0.934086
      dz2     :     0.031797  d :     0.149814
      dxz     :     0.023747
      dyz     :     0.036052
      dx2y2   :     0.031647
      dxy     :     0.026572
 19 N s       :     3.042320  s :     3.042320
      pz      :     1.203792  p :     3.767318
      px      :     1.324276
      py      :     1.239251
      dz2     :     0.015330  d :     0.062380
      dxz     :     0.014514
      dyz     :     0.015694
      dx2y2   :     0.006860
      dxy     :     0.009982
 20 H s       :     0.889915  s :     0.889915
      pz      :     0.012650  p :     0.064690
      px      :     0.014690
      py      :     0.037350
 21 H s       :     0.888069  s :     0.888069
      pz      :     0.014870  p :     0.065147
      px      :     0.031673
      py      :     0.018604
 22 H s       :     0.877023  s :     0.877023
      pz      :     0.021645  p :     0.071784
      px      :     0.015531
      py      :     0.034609
 23 H s       :     0.872696  s :     0.872696
      pz      :     0.046753  p :     0.077434
      px      :     0.014310
      py      :     0.016371
 24 H s       :     0.746747  s :     0.746747
      pz      :     0.030810  p :     0.117298
      px      :     0.044128
      py      :     0.042361
 25 O s       :     3.466133  s :     3.466133
      pz      :     1.460093  p :     4.530246
      px      :     1.502889
      py      :     1.567264
      dz2     :     0.003426  d :     0.024095
      dxz     :     0.008089
      dyz     :     0.001991
      dx2y2   :     0.006464
      dxy     :     0.004125
 26 O s       :     3.461290  s :     3.461290
      pz      :     1.584594  p :     4.506633
      px      :     1.570611
      py      :     1.351428
      dz2     :     0.003658  d :     0.025130
      dxz     :     0.002432
      dyz     :     0.003349
      dx2y2   :     0.004425
      dxy     :     0.011264
 27 O s       :     3.465880  s :     3.465880
      pz      :     1.548077  p :     4.535525
      px      :     1.411022
      py      :     1.576427
      dz2     :     0.004610  d :     0.024089
      dxz     :     0.004437
      dyz     :     0.001352
      dx2y2   :     0.008503
      dxy     :     0.005187
 28 N s       :     3.082187  s :     3.082187
      pz      :     1.170845  p :     3.722985
      px      :     1.348638
      py      :     1.203502
      dz2     :     0.016920  d :     0.061866
      dxz     :     0.013160
      dyz     :     0.011715
      dx2y2   :     0.012538
      dxy     :     0.007532
 29 O s       :     3.559068  s :     3.559068
      pz      :     1.501983  p :     4.640176
      px      :     1.678184
      py      :     1.460009
      dz2     :     0.011761  d :     0.028165
      dxz     :     0.009007
      dyz     :     0.005292
      dx2y2   :     0.001033
      dxy     :     0.001074
 30 O s       :     3.559713  s :     3.559713
      pz      :     1.474986  p :     4.650311
      px      :     1.705942
      py      :     1.469383
      dz2     :     0.003679  d :     0.027969
      dxz     :     0.000716
      dyz     :     0.007571
      dx2y2   :     0.009919
      dxy     :     0.006084
 31 O s       :     3.558906  s :     3.558906
      pz      :     1.453798  p :     4.640597
      px      :     1.742971
      py      :     1.443828
      dz2     :     0.013914  d :     0.028005
      dxz     :     0.005187
      dyz     :     0.007848
      dx2y2   :     0.000571
      dxy     :     0.000485
 32 C s       :     2.842817  s :     2.842817
      pz      :     0.863807  p :     2.814245
      px      :     0.974654
      py      :     0.975784
      dz2     :     0.023180  d :     0.303292
      dxz     :     0.024708
      dyz     :     0.057610
      dx2y2   :     0.090087
      dxy     :     0.107706
 33 C s       :     2.848809  s :     2.848809
      pz      :     0.992263  p :     2.806129
      px      :     0.966440
      py      :     0.847426
      dz2     :     0.069731  d :     0.296671
      dxz     :     0.119831
      dyz     :     0.045067
      dx2y2   :     0.031447
      dxy     :     0.030595
 34 C s       :     2.852421  s :     2.852421
      pz      :     1.019289  p :     2.812477
      px      :     0.944202
      py      :     0.848986
      dz2     :     0.075623  d :     0.297998
      dxz     :     0.106197
      dyz     :     0.037193
      dx2y2   :     0.040668
      dxy     :     0.038317
 35 C s       :     2.859930  s :     2.859930
      pz      :     0.875568  p :     3.002002
      px      :     1.053599
      py      :     1.072834
      dz2     :     0.029098  d :     0.102415
      dxz     :     0.029981
      dyz     :     0.013560
      dx2y2   :     0.016297
      dxy     :     0.013479
 36 H s       :     0.870749  s :     0.870749
      pz      :     0.009591  p :     0.068791
      px      :     0.015614
      py      :     0.043586
 37 H s       :     0.890817  s :     0.890817
      pz      :     0.013861  p :     0.067295
      px      :     0.032275
      py      :     0.021159
 38 C s       :     2.858659  s :     2.858659
      pz      :     0.946513  p :     3.009422
      px      :     1.004888
      py      :     1.058020
      dz2     :     0.021940  d :     0.100862
      dxz     :     0.031822
      dyz     :     0.015722
      dx2y2   :     0.011378
      dxy     :     0.019999
 39 H s       :     0.885284  s :     0.885284
      pz      :     0.012561  p :     0.068142
      px      :     0.031928
      py      :     0.023654
 40 H s       :     0.869221  s :     0.869221
      pz      :     0.013369  p :     0.069433
      px      :     0.017729
      py      :     0.038335
 41 C s       :     2.859173  s :     2.859173
      pz      :     1.087079  p :     3.013621
      px      :     1.073105
      py      :     0.853437
      dz2     :     0.016868  d :     0.097888
      dxz     :     0.014288
      dyz     :     0.015107
      dx2y2   :     0.030965
      dxy     :     0.020661
 42 H s       :     0.866273  s :     0.866273
      pz      :     0.038547  p :     0.068838
      px      :     0.015271
      py      :     0.015019
 43 H s       :     0.875864  s :     0.875864
      pz      :     0.022851  p :     0.068763
      px      :     0.031396
      py      :     0.014516
 44 H s       :     0.902621  s :     0.902621
      pz      :     0.012450  p :     0.074595
      px      :     0.013318
      py      :     0.048826
 45 H s       :     0.902760  s :     0.902760
      pz      :     0.023185  p :     0.063855
      px      :     0.026320
      py      :     0.014350
 46 H s       :     0.911074  s :     0.911074
      pz      :     0.015489  p :     0.063607
      px      :     0.031018
      py      :     0.017101
 47 H s       :     0.900761  s :     0.900761
      pz      :     0.013744  p :     0.064782
      px      :     0.014264
      py      :     0.036773
 48 H s       :     0.897882  s :     0.897882
      pz      :     0.014807  p :     0.065288
      px      :     0.027546
      py      :     0.022935
 49 H s       :     0.905470  s :     0.905470
      pz      :     0.019082  p :     0.063673
      px      :     0.030440
      py      :     0.014151


                      *****************************
                      * MAYER POPULATION ANALYSIS *
                      *****************************

  NA   - Mulliken gross atomic population
  ZA   - Total nuclear charge
  QA   - Mulliken gross atomic charge
  VA   - Mayer's total valence
  BVA  - Mayer's bonded valence
  FA   - Mayer's free valence

  ATOM       NA         ZA         QA         VA         BVA        FA
  0 Co    27.1145    27.0000    -0.1145     4.8717     4.8717     0.0000
  1 C      6.0928     6.0000    -0.0928     4.0966     4.0966    -0.0000
  2 C      5.9086     6.0000     0.0914     4.0325     4.0325    -0.0000
  3 C      6.0975     6.0000    -0.0975     3.9291     3.9291     0.0000
  4 C      5.9766     6.0000     0.0234     3.8493     3.8493     0.0000
  5 N      7.0423     7.0000    -0.0423     3.5136     3.5136     0.0000
  6 C      5.8403     6.0000     0.1597     3.8861     3.8861    -0.0000
  7 N      7.1568     7.0000    -0.1568     3.4239     3.4239     0.0000
  8 H      0.9489     1.0000     0.0511     0.9824     0.9824     0.0000
  9 H      0.9391     1.0000     0.0609     0.9779     0.9779    -0.0000
 10 H      0.8079     1.0000     0.1921     0.9702     0.9702    -0.0000
 11 H      0.9504     1.0000     0.0496     1.0379     1.0379    -0.0000
 12 H      0.9133     1.0000     0.0867     1.0073     1.0073     0.0000
 13 C      6.0662     6.0000    -0.0662     3.9971     3.9971     0.0000
 14 C      5.9802     6.0000     0.0198     4.0807     4.0807     0.0000
 15 C      6.0405     6.0000    -0.0405     3.9947     3.9947     0.0000
 16 C      6.0207     6.0000    -0.0207     3.8315     3.8315    -0.0000
 17 N      7.1781     7.0000    -0.1781     3.3622     3.3622    -0.0000
 18 C      5.8894     6.0000     0.1106     3.9256     3.9256    -0.0000
 19 N      7.0241     7.0000    -0.0241     3.5438     3.5438    -0.0000
 20 H      0.9652     1.0000     0.0348     0.9812     0.9812    -0.0000
 21 H      0.9616     1.0000     0.0384     1.0011     1.0011    -0.0000
 22 H      0.9382     1.0000     0.0618     0.9966     0.9966    -0.0000
 23 H      0.9050     1.0000     0.0950     1.0028     1.0028     0.0000
 24 H      0.7988     1.0000     0.2012     0.9646     0.9646    -0.0000
 25 O      8.2520     8.0000    -0.2520     2.2973     2.2973    -0.0000
 26 O      8.2147     8.0000    -0.2147     2.3452     2.3452     0.0000
 27 O      8.2543     8.0000    -0.2543     2.2879     2.2879     0.0000
 28 N      7.3379     7.0000    -0.3379     3.3987     3.3987     0.0000
 29 O      8.2556     8.0000    -0.2556     2.2751     2.2751    -0.0000
 30 O      8.2651     8.0000    -0.2651     2.2680     2.2680     0.0000
 31 O      8.2675     8.0000    -0.2675     2.2551     2.2551     0.0000
 32 C      5.8711     6.0000     0.1289     4.3934     4.3934     0.0000
 33 C      5.8828     6.0000     0.1172     4.3486     4.3486     0.0000
 34 C      5.9043     6.0000     0.0957     4.3780     4.3780     0.0000
 35 C      5.8517     6.0000     0.1483     3.7124     3.7124     0.0000
 36 H      0.9144     1.0000     0.0856     1.0095     1.0095     0.0000
 37 H      0.9434     1.0000     0.0566     1.0041     1.0041     0.0000
 38 C      5.8625     6.0000     0.1375     3.7564     3.7564     0.0000
 39 H      0.9354     1.0000     0.0646     1.0051     1.0051     0.0000
 40 H      0.9090     1.0000     0.0910     1.0092     1.0092    -0.0000
 41 C      5.9273     6.0000     0.0727     3.7607     3.7607    -0.0000
 42 H      0.9023     1.0000     0.0977     0.9981     0.9981     0.0000
 43 H      0.9209     1.0000     0.0791     1.0054     1.0054    -0.0000
 44 H      0.9646     1.0000     0.0354     1.0645     1.0645    -0.0000
 45 H      0.9679     1.0000     0.0321     0.9847     0.9847    -0.0000
 46 H      0.9745     1.0000     0.0255     0.9867     0.9867    -0.0000
 47 H      0.9524     1.0000     0.0476     0.9880     0.9880     0.0000
 48 H      0.9437     1.0000     0.0563     0.9854     0.9854     0.0000
 49 H      0.9673     1.0000     0.0327     0.9798     0.9798    -0.0000

  Mayer bond orders larger than 0.100000
B(  0-Co,  7-N ) :   0.6050 B(  0-Co, 17-N ) :   0.5639 B(  0-Co, 25-O ) :   0.7289 
B(  0-Co, 26-O ) :   0.8461 B(  0-Co, 27-O ) :   0.7538 B(  0-Co, 28-N ) :   0.6063 
B(  1-C ,  2-C ) :   1.1432 B(  1-C , 47-H ) :   0.9626 B(  1-C , 48-H ) :   0.9514 
B(  1-C , 49-H ) :   0.9530 B(  2-C ,  3-C ) :   1.0539 B(  2-C ,  8-H ) :   0.9156 
B(  2-C ,  9-H ) :   0.9085 B(  3-C ,  4-C ) :   1.4717 B(  3-C ,  5-N ) :   1.2225 
B(  4-C ,  7-N ) :   1.2405 B(  4-C , 11-H ) :   0.9583 B(  5-N ,  6-C ) :   1.2814 
B(  5-N , 10-H ) :   0.9116 B(  6-C ,  7-N ) :   1.4270 B(  6-C , 12-H ) :   0.9414 
B( 13-C , 14-C ) :   1.1219 B( 13-C , 44-H ) :   0.9381 B( 13-C , 45-H ) :   0.9526 
B( 13-C , 46-H ) :   0.9629 B( 14-C , 15-C ) :   1.0683 B( 14-C , 20-H ) :   0.9227 
B( 14-C , 21-H ) :   0.9123 B( 15-C , 16-C ) :   1.4912 B( 15-C , 17-N ) :   1.2573 
B( 16-C , 19-N ) :   1.2191 B( 16-C , 22-H ) :   0.9849 B( 17-N , 18-C ) :   1.3977 
B( 18-C , 19-N ) :   1.3120 B( 18-C , 23-H ) :   0.9445 B( 19-N , 24-H ) :   0.9084 
B( 25-O , 31-O ) :   0.1130 B( 25-O , 33-C ) :   1.3287 B( 26-O , 30-O ) :   0.1111 
B( 26-O , 32-C ) :   1.3097 B( 27-O , 29-O ) :   0.1134 B( 27-O , 34-C ) :   1.2915 
B( 28-N , 35-C ) :   0.8939 B( 28-N , 38-C ) :   0.8996 B( 28-N , 41-C ) :   0.8833 
B( 29-O , 34-C ) :   2.0279 B( 30-O , 32-C ) :   2.0231 B( 31-O , 33-C ) :   1.9467 
B( 32-C , 41-C ) :   0.9487 B( 33-C , 35-C ) :   0.9283 B( 34-C , 38-C ) :   0.9335 
B( 35-C , 36-H ) :   0.8980 B( 35-C , 37-H ) :   0.9293 B( 38-C , 39-H ) :   0.9235 
B( 38-C , 40-H ) :   0.8915 B( 41-C , 42-H ) :   0.9153 B( 41-C , 43-H ) :   0.9187 


-------
TIMINGS
-------

Total SCF time: 0 days 0 hours 2 min 29 sec 

Total time                  ....     149.995 sec
Sum of individual times     ....     148.812 sec  ( 99.2%)

Fock matrix formation       ....     141.935 sec  ( 94.6%)
  Split-RI-J                ....      39.147 sec  ( 27.6% of F)
  XC integration            ....      44.156 sec  ( 31.1% of F)
    Basis function eval.    ....      20.458 sec  ( 46.3% of XC)
    Density eval.           ....      12.727 sec  ( 28.8% of XC)
    XC-Functional eval.     ....       3.137 sec  (  7.1% of XC)
    XC-Potential eval.      ....       5.903 sec  ( 13.4% of XC)
Diagonalization             ....       0.654 sec  (  0.4%)
Density matrix formation    ....       0.092 sec  (  0.1%)
Population analysis         ....       0.045 sec  (  0.0%)
Initial guess               ....       0.068 sec  (  0.0%)
Orbital Transformation      ....       0.000 sec  (  0.0%)
Orbital Orthonormalization  ....       0.054 sec  (  0.0%)
DIIS solution               ....       0.541 sec  (  0.4%)
Grid generation             ....       5.478 sec  (  3.7%)

Maximum memory used throughout the entire SCF-calculation: 285.8 MB


-------------------------------------------------------------------------------
                          DFT DISPERSION CORRECTION                            
                                                                               
                              DFTD3 V3.1  Rev 1                                
                          USING Becke-Johnson damping                          
-------------------------------------------------------------------------------
The BP86 functional is recognized
Active option DFTDOPT                   ...         4   

molecular C6(AA) [au] = 26604.920541 


            DFT-D V3
 parameters
 s6 scaling factor         :     1.0000 
 a1 scaling factor         :     0.3946 
 s8 scaling factor         :     3.2822 
 a2 scaling factor         :     4.8516 
 ad hoc parameters k1-k3   :    16.0000     1.3333    -4.0000 

 Edisp/kcal,au: -72.691846603123  -0.115841818895 
 E6   /kcal   : -27.400498456 
 E8   /kcal   : -45.291348147 
 % E8         :  62.305953506 

-------------------------   ----------------
Dispersion correction           -0.115841819
-------------------------   ----------------


-------------------------   --------------------
FINAL SINGLE POINT ENERGY     -2730.472392007354
-------------------------   --------------------

                                *** OPTIMIZATION RUN DONE ***

                            ***************************************
                            *     ORCA property calculations      *
                            ***************************************

                                    ---------------------
                                    Active property flags
                                    ---------------------
   (+) Dipole Moment


------------------------------------------------------------------------------
                       ORCA ELECTRIC PROPERTIES CALCULATION
------------------------------------------------------------------------------

Dipole Moment Calculation                       ... on
Quadrupole Moment Calculation                   ... off
Polarizability Calculation                      ... off
GBWName                                         ... opt.gbw
Electron density file                           ... opt.scfp
The origin for moment calculation is the CENTER OF MASS  = (-12.611725,  1.979767 -18.639060)

-------------
DIPOLE MOMENT
-------------
                                X             Y             Z
Electronic contribution:    -11.81549       5.75241     -19.43308
Nuclear contribution   :     12.04672     -11.14991      19.09074
                        -----------------------------------------
Total Dipole Moment    :      0.23123      -5.39750      -0.34234
                        -----------------------------------------
Magnitude (a.u.)       :      5.41328
Magnitude (Debye)      :     13.75947



--------------------
Rotational spectrum 
--------------------
 
Rotational constants in cm-1:     0.006811     0.005577     0.004720 
Rotational constants in MHz :   204.179167   167.204259   141.498977 

 Dipole components along the rotational axes: 
x,y,z [a.u.] :    -1.239855    -3.557151    -3.887552 
x,y,z [Debye]:    -3.151462    -9.041559    -9.881372 

 

Timings for individual modules:

Sum of individual times         ...     8752.906 sec (= 145.882 min)
GTO integral calculation        ...       34.443 sec (=   0.574 min)   0.4 %
SCF iterations                  ...     6801.252 sec (= 113.354 min)  77.7 %
SCF Gradient evaluation         ...     1904.833 sec (=  31.747 min)  21.8 %
Geometry relaxation             ...       12.377 sec (=   0.206 min)   0.1 %
                             ****ORCA TERMINATED NORMALLY****
TOTAL RUN TIME: 0 days 2 hours 26 minutes 4 seconds 27 msec
