
                                        *****************
                                        * O   R   C   A *
                                        *****************

                                            #,                                       
                                            ###                                      
                                            ####                                     
                                            #####                                    
                                            ######                                   
                                           ########,                                 
                                     ,,################,,,,,                         
                               ,,#################################,,                 
                          ,,##########################################,,             
                       ,#########################################, ''#####,          
                    ,#############################################,,   '####,        
                  ,##################################################,,,,####,       
                ,###########''''           ''''###############################       
              ,#####''   ,,,,##########,,,,          '''####'''          '####       
            ,##' ,,,,###########################,,,                        '##       
           ' ,,###''''                  '''############,,,                           
         ,,##''                                '''############,,,,        ,,,,,,###''
      ,#''                                            '''#######################'''  
     '                                                          ''''####''''         
             ,#######,   #######,   ,#######,      ##                                
            ,#'     '#,  ##    ##  ,#'     '#,    #''#        ######   ,####,        
            ##       ##  ##   ,#'  ##            #'  '#       #        #'  '#        
            ##       ##  #######   ##           ,######,      #####,   #    #        
            '#,     ,#'  ##    ##  '#,     ,#' ,#      #,         ##   #,  ,#        
             '#######'   ##     ##  '#######'  #'      '#     #####' # '####'        



                  #######################################################
                  #                        -***-                        #
                  #          Department of theory and spectroscopy      #
                  #    Directorship and core code : Frank Neese         #
                  #        Max Planck Institute fuer Kohlenforschung    #
                  #                Kaiser Wilhelm Platz 1               #
                  #                 D-45470 Muelheim/Ruhr               #
                  #                      Germany                        #
                  #                                                     #
                  #                  All rights reserved                #
                  #                        -***-                        #
                  #######################################################


                         Program Version 5.0.0 -  RELEASE  -
                                (SVN: $Rev: 19529$)
                ($Date: 2021-06-28 11:36:33 +0200 (Mo, 28 Jun 2021) $)


 With contributions from (in alphabetic order):
   Daniel Aravena         : Magnetic Suceptibility
   Michael Atanasov       : Ab Initio Ligand Field Theory (pilot matlab implementation)
   Alexander A. Auer      : GIAO ZORA, VPT2 properties, NMR spectrum
   Ute Becker             : Parallelization
   Giovanni Bistoni       : ED, misc. LED, open-shell LED, HFLD
   Martin Brehm           : Molecular dynamics
   Dmytro Bykov           : SCF Hessian
   Vijay G. Chilkuri      : MRCI spin determinant printing, contributions to CSF-ICE
   Dipayan Datta          : RHF DLPNO-CCSD density
   Achintya Kumar Dutta   : EOM-CC, STEOM-CC
   Dmitry Ganyushin       : Spin-Orbit,Spin-Spin,Magnetic field MRCI
   Miquel Garcia          : C-PCM Hessian, Gaussian charge scheme
   Yang Guo               : DLPNO-NEVPT2, F12-NEVPT2, CIM, IAO-localization
   Andreas Hansen         : Spin unrestricted coupled pair/coupled cluster methods
   Benjamin Helmich-Paris : MC-RPA, TRAH-SCF, COSX integrals
   Lee Huntington         : MR-EOM, pCC
   Robert Izsak           : Overlap fitted RIJCOSX, COSX-SCS-MP3, EOM
   Marcus Kettner         : VPT2
   Christian Kollmar      : KDIIS, OOCD, Brueckner-CCSD(T), CCSD density, CASPT2, CASPT2-K
   Simone Kossmann        : Meta GGA functionals, TD-DFT gradient, OOMP2, MP2 Hessian
   Martin Krupicka        : Initial AUTO-CI
   Lucas Lang             : DCDCAS
   Marvin Lechner         : AUTO-CI (C++ implementation), FIC-MRCC
   Dagmar Lenk            : GEPOL surface, SMD
   Dimitrios Liakos       : Extrapolation schemes; Compound Job, initial MDCI parallelization
   Dimitrios Manganas     : Further ROCIS development; embedding schemes
   Dimitrios Pantazis     : SARC Basis sets
   Anastasios Papadopoulos: AUTO-CI, single reference methods and gradients
   Taras Petrenko         : DFT Hessian,TD-DFT gradient, ASA, ECA, R-Raman, ABS, FL, XAS/XES, NRVS
   Peter Pinski           : DLPNO-MP2, DLPNO-MP2 Gradient
   Christoph Reimann      : Effective Core Potentials
   Marius Retegan         : Local ZFS, SOC
   Christoph Riplinger    : Optimizer, TS searches, QM/MM, DLPNO-CCSD(T), (RO)-DLPNO pert. Triples
   Tobias Risthaus        : Range-separated hybrids, TD-DFT gradient, RPA, STAB
   Michael Roemelt        : Original ROCIS implementation
   Masaaki Saitow         : Open-shell DLPNO-CCSD energy and density
   Barbara Sandhoefer     : DKH picture change effects
   Avijit Sen             : IP-ROCIS
   Kantharuban Sivalingam : CASSCF convergence, NEVPT2, FIC-MRCI
   Bernardo de Souza      : ESD, SOC TD-DFT
   Georgi Stoychev        : AutoAux, RI-MP2 NMR
   Willem Van den Heuvel  : Paramagnetic NMR
   Boris Wezisla          : Elementary symmetry handling
   Frank Wennmohs         : Technical directorship


 We gratefully acknowledge several colleagues who have allowed us to
 interface, adapt or use parts of their codes:
   Stefan Grimme, W. Hujo, H. Kruse, P. Pracht,  : VdW corrections, initial TS optimization,
                  C. Bannwarth, S. Ehlert          DFT functionals, gCP, sTDA/sTD-DF
   Ed Valeev, F. Pavosevic, A. Kumar             : LibInt (2-el integral package), F12 methods
   Garnet Chan, S. Sharma, J. Yang, R. Olivares  : DMRG
   Ulf Ekstrom                                   : XCFun DFT Library
   Mihaly Kallay                                 : mrcc  (arbitrary order and MRCC methods)
   Jiri Pittner, Ondrej Demel                    : Mk-CCSD
   Frank Weinhold                                : gennbo (NPA and NBO analysis)
   Christopher J. Cramer and Donald G. Truhlar   : smd solvation model
   Lars Goerigk                                  : TD-DFT with DH, B97 family of functionals
   V. Asgeirsson, H. Jonsson                     : NEB implementation
   FAccTs GmbH                                   : IRC, NEB, NEB-TS, DLPNO-Multilevel, CI-OPT
                                                   MM, QMMM, 2- and 3-layer-ONIOM, Crystal-QMMM,
                                                   LR-CPCM, SF, NACMEs, symmetry and pop. for TD-DFT,
                                                   nearIR, NL-DFT gradient (VV10), updates on ESD,
                                                   ML-optimized integration grids
   S Lehtola, MJT Oliveira, MAL Marques          : LibXC Library
   Liviu Ungur et al                             : ANISO software


 Your calculation uses the libint2 library for the computation of 2-el integrals
 For citations please refer to: http://libint.valeyev.net

 Your ORCA version has been built with support for libXC version: 5.1.0
 For citations please refer to: https://tddft.org/programs/libxc/

 This ORCA versions uses:
   CBLAS   interface :  Fast vector & matrix operations
   LAPACKE interface :  Fast linear algebra routines
   SCALAPACK package :  Parallel linear algebra routines
   Shared memory     :  Shared parallel matrices
   BLAS/LAPACK       :  OpenBLAS 0.3.15  USE64BITINT DYNAMIC_ARCH NO_AFFINITY SkylakeX SINGLE_THREADED
        Core in use  :  SkylakeX
   Copyright (c) 2011-2014, The OpenBLAS Project




***************************************
The coordinates will be read from file: ../32Ne-28Ne-nta-co-min.xyz
***************************************


Your calculation utilizes the atom-pairwise dispersion correction
with the Becke-Johnson damping scheme (D3BJ)
Cite in your paper:
S.Grimme, S.Ehrlich, L.Goerigk, J Comput Chem, (2011), 32, 1456–1465 
S.Grimme, J.Antony, S.Ehrlich and H.Krieg, J.Chem.Phys., 132, (2010), 154104 
   

Your calculation utilizes the SMD solvation module
Please cite in your paper:
A.V. Marenich, C.J. Cramer, D.G. Truhlar J. Phys. Chem. B, 113, (2009), 6378 

================================================================================

----- Orbital basis set information -----
Your calculation utilizes the basis: def2-SVP
   F. Weigend and R. Ahlrichs, Phys. Chem. Chem. Phys. 7, 3297 (2005).

The basis set includes element-specific modifications.

Your calculation utilizes the basis: def2-TZVP
   F. Weigend and R. Ahlrichs, Phys. Chem. Chem. Phys. 7, 3297 (2005).

----- AuxJ basis set information -----
Your calculation utilizes the auxiliary basis: def2/J
   F. Weigend, Phys. Chem. Chem. Phys. 8, 1057 (2006).

================================================================================
                                        WARNINGS
                       Please study these warnings very carefully!
================================================================================


WARNING: Geometry Optimization
  ===> : Switching off AutoStart
         For restart on a previous wavefunction, please use MOREAD

INFO   : the flag for use of the SHARK integral package has been found!

================================================================================
                                       INPUT FILE
================================================================================
NAME = opt.inp
|  1> ! RI BP86 def2-SVP def2/J D3BJ TIGHTSCF Opt
|  2> ! CPCM
|  3> # memory
|  4> %maxcore 32000
|  5> # smd solvation model
|  6> %cpcm
|  7> smd true
|  8> SMDsolvent "DMF"
|  9> end
| 10> # triple zeta basis on Co
| 11> %basis newgto Co "def2-TZVP" end end
| 12> # constrain CA and CB atoms of diHis (determined by backbone helix)
| 13> # and constrain Co in PCS defined position
| 14> %geom
| 15> Constraints
| 16> {C 0 C}
| 17> {C 1 C}
| 18> {C 2 C}
| 19> {C 13 C}
| 20> {C 14 C}
| 21> end
| 22> end
| 23>  * xyzfile 0 1 ../32Ne-28Ne-nta-co-min.xyz
| 24> 
| 25>                          ****END OF INPUT****
================================================================================

                       *****************************
                       * Geometry Optimization Run *
                       *****************************

Geometry optimization settings:
Update method            Update   .... BFGS
Choice of coordinates    CoordSys .... Z-matrix Internals
Initial Hessian          InHess   .... Almoef's Model

Convergence Tolerances:
Energy Change            TolE     ....  5.0000e-06 Eh
Max. Gradient            TolMAXG  ....  3.0000e-04 Eh/bohr
RMS Gradient             TolRMSG  ....  1.0000e-04 Eh/bohr
Max. Displacement        TolMAXD  ....  4.0000e-03 bohr
RMS Displacement         TolRMSD  ....  2.0000e-03 bohr
Strict Convergence                ....  False
------------------------------------------------------------------------------
                        ORCA OPTIMIZATION COORDINATE SETUP
------------------------------------------------------------------------------

The optimization will be done in new redundant internal coordinates
Making redundant internal coordinates   ...  (new redundants) done
Evaluating the initial hessian          ...  (Almloef) done
Evaluating the coordinates              ...  done
Calculating the B-matrix                .... done
Calculating the G-matrix                .... done
Diagonalizing the G-matrix              .... done
Imposing constraints:
 Iter   0:  RMS(Cart)=    0.0000000000 RMS(Int)=    0.0000000000
CONVERGED
Will constrain atom 0 coordinate 1 
Will constrain atom 0 coordinate 2 
Will constrain atom 0 coordinate 3 
Will constrain atom 1 coordinate 1 
Will constrain atom 1 coordinate 2 
Will constrain atom 1 coordinate 3 
Will constrain atom 2 coordinate 1 
Will constrain atom 2 coordinate 2 
Will constrain atom 2 coordinate 3 
Will constrain atom 13 coordinate 1 
Will constrain atom 13 coordinate 2 
Will constrain atom 13 coordinate 3 
Will constrain atom 14 coordinate 1 
Will constrain atom 14 coordinate 2 
Will constrain atom 14 coordinate 3 
Small eigenvalue found = 7.053e-03
Small eigenvalue found = 1.095e-02
Small eigenvalue found = 2.118e-02
The first mode is                       ....  564
The number of degrees of freedom        ....  150
Storing new coordinates                 .... done

    -----------------------------------------------------------------
                    Redundant Internal Coordinates


    -----------------------------------------------------------------
         Definition                    Initial Value    Approx d2E/dq
    -----------------------------------------------------------------
      1. B(C   2,C   1)                  1.5300         0.373561   
      2. B(C   3,C   2)                  1.5159         0.393485   
      3. B(C   4,C   3)                  1.3324         0.772113   
      4. B(N   5,C   3)                  1.4101         0.519849   
      5. B(C   6,N   5)                  1.4393         0.466818   
      6. B(N   7,Co  0)                  1.9273         0.786544   
      7. B(N   7,C   4)                  1.4186         0.503835   
      8. B(N   7,C   6)                  1.4433         0.460032   
      9. B(H   8,C   2)                  1.1111         0.333211   
     10. B(H   9,C   2)                  1.1109         0.333456   
     11. B(H  10,N   5)                  1.0301         0.401954   
     12. B(H  11,C   4)                  1.0816         0.371428   
     13. B(H  12,C   6)                  1.1099         0.334703   
     14. B(C  14,C  13)                  1.5295         0.374301   
     15. B(C  15,C  14)                  1.5758         0.315758   
     16. B(C  16,C  15)                  1.3464         0.733430   
     17. B(N  17,C  15)                  1.4219         0.497694   
     18. B(C  18,N  17)                  1.4306         0.482083   
     19. B(N  19,Co  0)                  1.9804         0.647173   
     20. B(N  19,C  16)                  1.4427         0.461099   
     21. B(N  19,C  18)                  1.4416         0.462961   
     22. B(H  20,C  14)                  1.1104         0.334105   
     23. B(H  21,C  14)                  1.1105         0.333925   
     24. B(H  22,C  16)                  1.0814         0.371592   
     25. B(H  23,C  18)                  1.1026         0.343796   
     26. B(O  24,Co  0)                  1.8072         1.222833   
     27. B(O  25,Co  0)                  1.8013         1.249487   
     28. B(O  26,Co  0)                  1.8133         1.195730   
     29. B(N  27,Co  0)                  1.9387         0.754424   
     30. B(C  31,Co  0)                  2.6545         0.060734   
     31. B(C  31,O  25)                  1.3284         0.701631   
     32. B(C  31,O  29)                  1.2204         1.043523   
     33. B(C  32,Co  0)                  2.6418         0.063625   
     34. B(C  32,O  24)                  1.3495         0.649269   
     35. B(C  32,O  30)                  1.2200         1.044870   
     36. B(C  33,Co  0)                  2.6178         0.069502   
     37. B(C  33,O  26)                  1.3542         0.638352   
     38. B(C  33,O  28)                  1.2198         1.045617   
     39. B(C  34,Co  0)                  2.7786         0.038492   
     40. B(C  34,N  27)                  1.4841         0.395995   
     41. B(C  34,C  32)                  1.5058         0.408272   
     42. B(H  35,C  34)                  1.1059         0.339649   
     43. B(H  36,C  34)                  1.1108         0.333582   
     44. B(C  37,Co  0)                  2.7176         0.048169   
     45. B(C  37,N  27)                  1.4783         0.404541   
     46. B(C  37,C  33)                  1.5118         0.399358   
     47. B(H  38,C  37)                  1.1105         0.334005   
     48. B(H  39,C  37)                  1.1135         0.330284   
     49. B(C  40,Co  0)                  2.7898         0.036951   
     50. B(C  40,N  27)                  1.5062         0.365195   
     51. B(C  40,C  31)                  1.4798         0.449148   
     52. B(H  41,C  13)                  1.1118         0.332431   
     53. B(H  42,C  13)                  1.1101         0.334410   
     54. B(H  43,C  13)                  1.1116         0.332629   
     55. B(H  44,C   1)                  1.1107         0.333672   
     56. B(H  44,H  21)                  4.3465         0.000000   
     57. B(H  45,C   1)                  1.1106         0.333839   
     58. B(H  46,C   1)                  1.1104         0.334111   
     59. B(H  47,C  40)                  1.1107         0.333713   
     60. B(H  48,C  40)                  1.1139         0.329865   
     61. B(H  49,N  17)                  1.0282         0.404688   
     62. A(O  24,Co  0,C  34)           60.1972         0.373473   
     63. A(C  37,Co  0,C  40)           52.4741         0.225349   
     64. A(O  25,Co  0,N  27)           88.6884         0.646321   
     65. A(N  27,Co  0,C  34)           30.5663         0.344016   
     66. A(O  26,Co  0,C  37)           61.5423         0.386772   
     67. A(O  26,Co  0,C  34)          115.2777         0.372034   
     68. A(C  31,Co  0,C  37)           81.6089         0.241580   
     69. A(N  19,Co  0,C  34)           84.7301         0.335317   
     70. A(C  32,Co  0,C  40)           73.9611         0.234214   
     71. A(N   7,Co  0,O  26)           92.7073         0.646033   
     72. A(N  27,Co  0,C  33)           61.1571         0.380508   
     73. A(N   7,Co  0,N  19)           87.0742         0.573771   
     74. A(N  27,Co  0,C  31)           62.0748         0.371745   
     75. A(C  34,Co  0,C  40)           52.4892         0.218601   
     76. A(C  31,Co  0,C  40)           31.4194         0.232693   
     77. A(N   7,Co  0,C  31)          115.6732         0.374426   
     78. A(N  27,Co  0,C  32)           61.5267         0.374737   
     79. A(N  27,Co  0,C  37)           31.7694         0.357295   
     80. A(O  24,Co  0,N  27)           88.8037         0.643607   
     81. A(N   7,Co  0,O  25)           89.1020         0.651605   
     82. A(C  33,Co  0,C  34)           87.2215         0.238523   
     83. A(C  31,Co  0,C  33)           85.9811         0.254781   
     84. A(O  24,Co  0,C  33)          146.7150         0.414181   
     85. A(C  33,Co  0,C  40)           68.0139         0.237146   
     86. A(N  19,Co  0,C  32)           86.3856         0.364990   
     87. A(O  25,Co  0,C  31)           26.9273         0.405949   
     88. A(C  32,Co  0,C  37)           86.1025         0.243194   
     89. A(O  24,Co  0,C  32)           28.0887         0.407743   
     90. A(O  26,Co  0,N  27)           86.7138         0.640801   
     91. A(N   7,Co  0,C  32)          119.3202         0.377446   
     92. A(N  19,Co  0,N  27)           95.1449         0.569218   
     93. A(N   7,Co  0,O  24)           91.7974         0.648866   
     94. A(O  24,Co  0,C  40)           94.0960         0.370855   
     95. A(O  24,Co  0,C  37)          114.0216         0.388286   
     96. A(N  27,Co  0,C  40)           30.9919         0.341669   
     97. A(O  25,Co  0,C  33)          103.2288         0.415772   
     98. A(O  25,Co  0,C  37)          107.3469         0.389751   
     99. A(O  26,Co  0,C  32)          147.3944         0.406130   
    100. A(C  34,Co  0,C  37)           54.4509         0.226616   
    101. A(O  24,Co  0,O  25)           89.0476         0.710699   
    102. A(O  25,Co  0,C  32)           94.7225         0.409303   
    103. A(N  19,Co  0,C  31)          156.9872         0.362100   
    104. A(N   7,Co  0,C  34)          150.6896         0.346434   
    105. A(N   7,Co  0,C  33)          118.8092         0.383272   
    106. A(N  19,Co  0,O  24)           90.1826         0.624689   
    107. A(N   7,Co  0,C  40)          146.7171         0.344064   
    108. A(N  19,Co  0,C  33)           79.4410         0.370564   
    109. A(O  25,Co  0,C  40)           58.3259         0.372234   
    110. A(N  19,Co  0,C  40)          125.5785         0.333050   
    111. A(O  25,Co  0,C  34)           98.2136         0.374865   
    112. A(O  24,Co  0,C  31)           92.4041         0.404406   
    113. A(O  26,Co  0,C  31)           86.0816         0.402810   
    114. A(C  33,Co  0,C  37)           32.8537         0.246308   
    115. A(C  32,Co  0,C  33)          118.9464         0.256535   
    116. A(C  31,Co  0,C  34)           76.8104         0.234028   
    117. A(N  19,Co  0,C  37)           76.4706         0.348143   
    118. A(C  32,Co  0,C  34)           32.1317         0.235562   
    119. A(O  26,Co  0,C  40)           82.3864         0.369429   
    120. A(N   7,Co  0,C  37)          148.9886         0.359839   
    121. A(C  31,Co  0,C  32)           85.2145         0.251499   
    122. A(O  26,Co  0,C  33)           28.9529         0.412536   
    123. A(N  19,Co  0,O  26)           89.5623         0.621978   
    124. A(O  25,Co  0,O  26)           91.5080         0.707553   
    125. A(H  44,C   1,H  46)          108.9515         0.284052   
    126. A(C   2,C   1,H  45)          110.1561         0.320318   
    127. A(H  45,C   1,H  46)          108.8287         0.284074   
    128. A(C   2,C   1,H  44)          110.0167         0.320292   
    129. A(H  44,C   1,H  45)          109.0989         0.284016   
    130. A(C   2,C   1,H  46)          109.7605         0.320361   
    131. A(C   1,C   2,C   3)          114.2742         0.366593   
    132. A(C   1,C   2,H   8)          107.7480         0.320220   
    133. A(C   3,C   2,H   8)          108.7797         0.322955   
    134. A(C   1,C   2,H   9)          109.1824         0.320258   
    135. A(C   3,C   2,H   9)          108.6269         0.322994   
    136. A(H   8,C   2,H   9)          108.0625         0.283904   
    137. A(C   2,C   3,N   5)          123.0028         0.385690   
    138. A(C   2,C   3,C   4)          127.6953         0.416172   
    139. A(C   4,C   3,N   5)          109.2767         0.434592   
    140. A(N   7,C   4,H  11)          124.9556         0.340487   
    141. A(C   3,C   4,N   7)          109.2776         0.432153   
    142. A(C   3,C   4,H  11)          125.7588         0.368297   
    143. A(C   3,N   5,H  10)          125.6127         0.343839   
    144. A(C   6,N   5,H  10)          125.2310         0.337707   
    145. A(C   3,N   5,C   6)          109.1562         0.394853   
    146. A(N   5,C   6,N   7)          103.6556         0.386506   
    147. A(N   7,C   6,H  12)          110.1047         0.329626   
    148. A(N   5,C   6,H  12)          110.2262         0.330425   
    149. A(C   4,N   7,C   6)          108.6224         0.391690   
    150. A(Co  0,N   7,C   6)          123.1631         0.476599   
    151. A(Co  0,N   7,C   4)          128.1999         0.484661   
    152. A(C  14,C  13,H  41)          111.4269         0.320200   
    153. A(C  14,C  13,H  42)          108.3996         0.320511   
    154. A(H  41,C  13,H  42)          107.0312         0.283927   
    155. A(H  41,C  13,H  43)          111.3875         0.283691   
    156. A(C  14,C  13,H  43)          111.3830         0.320232   
    157. A(H  42,C  13,H  43)          106.9657         0.283953   
    158. A(C  13,C  14,H  20)          111.0401         0.320464   
    159. A(C  15,C  14,H  20)          110.4435         0.311722   
    160. A(C  13,C  14,H  21)          110.3058         0.320435   
    161. A(C  15,C  14,H  21)          110.0814         0.311695   
    162. A(H  20,C  14,H  21)          109.9794         0.284085   
    163. A(C  13,C  14,C  15)          104.8903         0.353223   
    164. A(C  14,C  15,C  16)          129.8345         0.396675   
    165. A(C  14,C  15,N  17)          123.4429         0.368505   
    166. A(C  16,C  15,N  17)          106.7052         0.427244   
    167. A(C  15,C  16,H  22)          124.7944         0.365094   
    168. A(N  19,C  16,H  22)          124.2447         0.335517   
    169. A(C  15,C  16,N  19)          110.9351         0.421447   
    170. A(C  15,N  17,H  49)          127.6396         0.341726   
    171. A(C  18,N  17,H  49)          121.5047         0.339910   
    172. A(C  15,N  17,C  18)          110.8432         0.394066   
    173. A(N  17,C  18,H  23)          108.2676         0.333669   
    174. A(N  19,C  18,H  23)          110.9258         0.331438   
    175. A(N  17,C  18,N  19)          104.4765         0.389112   
    176. A(C  16,N  19,C  18)          106.9960         0.386104   
    177. A(Co  0,N  19,C  16)          126.2730         0.460055   
    178. A(Co  0,N  19,C  18)          123.7099         0.460394   
    179. A(Co  0,O  24,C  32)          112.8234         0.552049   
    180. A(Co  0,O  25,C  31)          115.1880         0.562555   
    181. A(Co  0,O  26,C  33)          110.6387         0.547941   
    182. A(Co  0,N  27,C  40)          107.4960         0.453410   
    183. A(C  34,N  27,C  40)          110.8627         0.361038   
    184. A(Co  0,N  27,C  34)          107.8062         0.460150   
    185. A(C  37,N  27,C  40)          109.3849         0.362356   
    186. A(Co  0,N  27,C  37)          104.5643         0.461948   
    187. A(C  34,N  27,C  37)          116.2023         0.367412   
    188. A(O  25,C  31,O  29)          120.8851         0.481700   
    189. A(Co  0,C  31,C  40)           79.3381         0.307979   
    190. A(O  25,C  31,C  40)          117.1718         0.416178   
    191. A(O  29,C  31,C  40)          121.8849         0.446934   
    192. A(Co  0,C  31,O  25)           37.8847         0.329248   
    193. A(Co  0,C  31,O  29)          158.3229         0.351833   
    194. A(Co  0,C  32,O  24)           39.0879         0.327566   
    195. A(Co  0,C  32,O  30)          158.5425         0.354691   
    196. A(O  24,C  32,O  30)          120.5339         0.474979   
    197. A(Co  0,C  32,C  34)           78.9424         0.305568   
    198. A(O  24,C  32,C  34)          117.9741         0.403616   
    199. A(O  30,C  32,C  34)          121.2436         0.439389   
    200. A(Co  0,C  33,O  26)           40.4084         0.331452   
    201. A(Co  0,C  33,O  28)          157.3325         0.360102   
    202. A(O  26,C  33,O  28)          120.9137         0.473563   
    203. A(Co  0,C  33,C  37)           77.2034         0.308841   
    204. A(O  26,C  33,C  37)          116.9816         0.400849   
    205. A(O  28,C  33,C  37)          121.8175         0.437699   
    206. A(Co  0,C  34,N  27)           41.6275         0.279373   
    207. A(Co  0,C  34,C  32)           68.9259         0.282284   
    208. A(N  27,C  34,C  32)          108.0395         0.370306   
    209. A(Co  0,C  34,H  35)          113.2834         0.249349   
    210. A(N  27,C  34,H  35)          112.4879         0.322373   
    211. A(C  32,C  34,H  35)          109.4465         0.325941   
    212. A(Co  0,C  34,H  36)          140.6124         0.248697   
    213. A(N  27,C  34,H  36)          112.5208         0.321423   
    214. A(C  32,C  34,H  36)          110.1437         0.324976   
    215. A(H  35,C  34,H  36)          104.1584         0.284767   
    216. A(N  27,C  37,H  38)          112.5912         0.322615   
    217. A(C  33,C  37,H  38)          107.6130         0.323867   
    218. A(Co  0,C  37,H  39)          148.3258         0.256635   
    219. A(N  27,C  37,H  39)          110.8525         0.322024   
    220. A(C  33,C  37,H  39)          112.1728         0.323273   
    221. A(H  38,C  37,H  39)          107.4811         0.283588   
    222. A(Co  0,C  37,N  27)           43.6663         0.290257   
    223. A(Co  0,C  37,C  33)           69.9429         0.291335   
    224. A(N  27,C  37,C  33)          106.1554         0.370259   
    225. A(Co  0,C  37,H  38)          101.3205         0.257060   
    226. A(Co  0,C  40,N  27)           41.5121         0.274196   
    227. A(Co  0,C  40,C  31)           69.2425         0.284686   
    228. A(N  27,C  40,C  31)          110.0209         0.371227   
    229. A(Co  0,C  40,H  47)          135.3858         0.247241   
    230. A(N  27,C  40,H  47)          113.2034         0.317222   
    231. A(C  31,C  40,H  47)          108.7794         0.330149   
    232. A(Co  0,C  40,H  48)          117.7393         0.246826   
    233. A(N  27,C  40,H  48)          113.0070         0.316624   
    234. A(C  31,C  40,H  48)          105.5507         0.329517   
    235. A(H  47,C  40,H  48)          105.8874         0.283493   
    236. D(C   3,C   2,C   1,H  44)     59.7243         0.011143   
    237. D(C   3,C   2,C   1,H  45)    -60.5854         0.011143   
    238. D(C   3,C   2,C   1,H  46)    179.6017         0.011143   
    239. D(H   9,C   2,C   1,H  46)    -58.5366         0.011143   
    240. D(H   9,C   2,C   1,H  44)   -178.4141         0.011143   
    241. D(H   8,C   2,C   1,H  45)    178.4077         0.011143   
    242. D(H   8,C   2,C   1,H  46)     58.5949         0.011143   
    243. D(H   8,C   2,C   1,H  44)    -61.2826         0.011143   
    244. D(H   9,C   2,C   1,H  45)     61.2762         0.011143   
    245. D(C   4,C   3,C   2,H   9)    -58.5100         0.011508   
    246. D(C   4,C   3,C   2,C   1)     63.6559         0.011508   
    247. D(C   4,C   3,C   2,H   8)   -175.9102         0.011508   
    248. D(N   5,C   3,C   2,H   9)    119.4634         0.011508   
    249. D(N   5,C   3,C   2,C   1)   -118.3706         0.011508   
    250. D(N   5,C   3,C   2,H   8)      2.0632         0.011508   
    251. D(N   7,C   4,C   3,C   2)    177.8573         0.042761   
    252. D(H  11,C   4,C   3,C   2)     -1.1529         0.042761   
    253. D(H  11,C   4,C   3,N   5)   -179.3524         0.042761   
    254. D(N   7,C   4,C   3,N   5)     -0.3423         0.042761   
    255. D(C   6,N   5,C   3,C   2)   -178.6641         0.021425   
    256. D(C   6,N   5,C   3,C   4)     -0.3628         0.021425   
    257. D(H  10,N   5,C   3,C   2)      1.1803         0.021425   
    258. D(H  10,N   5,C   3,C   4)    179.4816         0.021425   
    259. D(H  12,C   6,N   5,H  10)    -61.1571         0.017174   
    260. D(H  12,C   6,N   5,C   3)    118.6880         0.017174   
    261. D(N   7,C   6,N   5,H  10)   -178.9644         0.017174   
    262. D(N   7,C   6,N   5,C   3)      0.8808         0.017174   
    263. D(C   4,N   7,Co  0,C  37)   -128.9327         0.005878   
    264. D(C   4,N   7,Co  0,C  40)    118.7505         0.005878   
    265. D(C   6,N   7,Co  0,C  37)     49.5193         0.005878   
    266. D(C   4,N   7,Co  0,C  32)     12.6020         0.005878   
    267. D(C   6,N   7,C   4,H  11)    179.9376         0.020079   
    268. D(Co  0,N   7,C   6,N   5)   -179.7924         0.016672   
    269. D(Co  0,N   7,C   4,H  11)     -1.4298         0.020079   
    270. D(C   4,N   7,Co  0,N  19)    -71.5953         0.005878   
    271. D(Co  0,N   7,C   4,C   3)    179.5502         0.020079   
    272. D(C   6,N   7,Co  0,N  19)    106.8568         0.005878   
    273. D(C   4,N   7,Co  0,C  31)    112.0302         0.005878   
    274. D(C   6,N   7,Co  0,O  26)     17.4340         0.005878   
    275. D(C   4,N   7,Co  0,O  26)   -161.0180         0.005878   
    276. D(C   4,N   7,Co  0,C  33)   -147.8554         0.005878   
    277. D(C   6,N   7,Co  0,C  40)    -62.7974         0.005878   
    278. D(C   4,N   7,Co  0,O  25)    107.5145         0.005878   
    279. D(Co  0,N   7,C   6,H  12)     62.3159         0.016672   
    280. D(C   4,N   7,Co  0,C  34)      2.2101         0.005878   
    281. D(C   6,N   7,Co  0,O  24)   -163.0522         0.005878   
    282. D(C   4,N   7,Co  0,O  24)     18.4957         0.005878   
    283. D(C   4,N   7,C   6,H  12)   -118.9677         0.016672   
    284. D(C   6,N   7,Co  0,C  32)   -168.9460         0.005878   
    285. D(C   6,N   7,Co  0,C  33)     30.5967         0.005878   
    286. D(C   6,N   7,Co  0,C  31)    -69.5178         0.005878   
    287. D(C   6,N   7,C   4,C   3)      0.9176         0.020079   
    288. D(C   6,N   7,Co  0,O  25)    -74.0334         0.005878   
    289. D(C   6,N   7,Co  0,C  34)   -179.3378         0.005878   
    290. D(C   4,N   7,C   6,N   5)     -1.0760         0.016672   
    291. D(H  20,C  14,C  13,H  41)    178.6140         0.011184   
    292. D(C  15,C  14,C  13,H  41)    -62.0770         0.011184   
    293. D(C  15,C  14,C  13,H  43)     62.9785         0.011184   
    294. D(C  15,C  14,C  13,H  42)   -179.6019         0.011184   
    295. D(H  20,C  14,C  13,H  42)     61.0890         0.011184   
    296. D(H  21,C  14,C  13,H  42)    -61.0981         0.011184   
    297. D(H  20,C  14,C  13,H  43)    -56.3306         0.011184   
    298. D(H  21,C  14,C  13,H  41)     56.4269         0.011184   
    299. D(H  21,C  14,C  13,H  43)   -178.5177         0.011184   
    300. D(C  16,C  15,C  14,C  13)    177.6515         0.007708   
    301. D(C  16,C  15,C  14,H  21)     58.9962         0.007708   
    302. D(C  16,C  15,C  14,H  20)    -62.6403         0.007708   
    303. D(N  17,C  15,C  14,H  20)    119.0870         0.007708   
    304. D(N  17,C  15,C  14,C  13)     -0.6212         0.007708   
    305. D(N  17,C  15,C  14,H  21)   -119.2765         0.007708   
    306. D(N  19,C  16,C  15,C  14)   -179.0280         0.038200   
    307. D(N  19,C  16,C  15,N  17)     -0.5328         0.038200   
    308. D(H  22,C  16,C  15,C  14)     -0.8159         0.038200   
    309. D(H  22,C  16,C  15,N  17)    177.6794         0.038200   
    310. D(C  18,N  17,C  15,C  14)    177.7523         0.019577   
    311. D(C  18,N  17,C  15,C  16)     -0.8629         0.019577   
    312. D(H  49,N  17,C  15,C  14)     -0.9580         0.019577   
    313. D(H  49,N  17,C  15,C  16)   -179.5732         0.019577   
    314. D(H  23,C  18,N  17,H  49)    -61.0687         0.018337   
    315. D(H  23,C  18,N  17,C  15)    120.1291         0.018337   
    316. D(N  19,C  18,N  17,H  49)   -179.3414         0.018337   
    317. D(N  19,C  18,N  17,C  15)      1.8564         0.018337   
    318. D(C  16,N  19,Co  0,C  40)    119.6324         0.004450   
    319. D(C  18,N  19,Co  0,C  37)   -102.1659         0.004450   
    320. D(C  18,N  19,Co  0,C  31)    -84.0536         0.004450   
    321. D(C  16,N  19,Co  0,O  24)   -145.1981         0.004450   
    322. D(C  18,N  19,C  16,C  15)      1.7002         0.016750   
    323. D(C  16,N  19,Co  0,N   7)    -53.4077         0.004450   
    324. D(C  16,N  19,Co  0,O  26)     39.3256         0.004450   
    325. D(C  16,N  19,Co  0,C  32)   -173.0468         0.004450   
    326. D(C  18,N  19,Co  0,O  24)     12.5384         0.004450   
    327. D(Co  0,N  19,C  18,N  17)   -163.4596         0.016887   
    328. D(C  16,N  19,Co  0,C  37)    100.0975         0.004450   
    329. D(C  16,N  19,Co  0,C  34)    154.7637         0.004450   
    330. D(C  18,N  19,Co  0,O  26)   -162.9378         0.004450   
    331. D(Co  0,N  19,C  16,H  22)    -15.7655         0.016750   
    332. D(C  16,N  19,C  18,N  17)     -2.0858         0.016887   
    333. D(C  18,N  19,Co  0,C  33)   -135.6472         0.004450   
    334. D(C  18,N  19,Co  0,C  34)    -47.4997         0.004450   
    335. D(C  18,N  19,Co  0,N  27)    -76.2769         0.004450   
    336. D(C  18,N  19,Co  0,N   7)    104.3288         0.004450   
    337. D(C  16,N  19,Co  0,N  27)    125.9865         0.004450   
    338. D(C  18,N  19,Co  0,C  32)    -15.3103         0.004450   
    339. D(Co  0,N  19,C  18,H  23)     80.0969         0.016887   
    340. D(C  16,N  19,C  18,H  23)   -118.5294         0.016887   
    341. D(C  16,N  19,Co  0,C  33)     66.6162         0.004450   
    342. D(Co  0,N  19,C  16,C  15)    162.4584         0.016750   
    343. D(C  18,N  19,Co  0,C  40)    -82.6311         0.004450   
    344. D(C  18,N  19,C  16,H  22)   -176.5237         0.016750   
    345. D(C  16,N  19,Co  0,C  31)    118.2098         0.004450   
    346. D(C  32,O  24,Co  0,N  27)     13.1822         0.011898   
    347. D(C  32,O  24,Co  0,N   7)   -169.0385         0.011898   
    348. D(C  32,O  24,Co  0,O  25)    101.8900         0.011898   
    349. D(C  32,O  24,Co  0,C  31)     75.1667         0.011898   
    350. D(C  32,O  24,Co  0,C  33)    -11.1713         0.011898   
    351. D(C  32,O  24,Co  0,N  19)    -81.9600         0.011898   
    352. D(C  32,O  24,Co  0,C  34)      1.8589         0.011898   
    353. D(C  32,O  24,Co  0,C  37)     -6.7163         0.011898   
    354. D(C  32,O  24,Co  0,C  40)     43.7398         0.011898   
    355. D(C  31,O  25,Co  0,C  33)     51.5521         0.012372   
    356. D(C  31,O  25,Co  0,C  34)    -37.5093         0.012372   
    357. D(C  31,O  25,Co  0,O  26)     78.3003         0.012372   
    358. D(C  31,O  25,Co  0,N  27)     -8.3769         0.012372   
    359. D(C  31,O  25,Co  0,N   7)    170.9852         0.012372   
    360. D(C  31,O  25,Co  0,C  32)    -69.6661         0.012372   
    361. D(C  31,O  25,Co  0,C  37)     17.7175         0.012372   
    362. D(C  31,O  25,Co  0,O  24)    -97.2020         0.012372   
    363. D(C  31,O  25,Co  0,C  40)     -1.7969         0.012372   
    364. D(C  31,O  25,N  19,C  16)    118.8699         0.001500   
    365. D(C  31,O  25,N  19,C  18)    -85.8771         0.001500   
    366. D(C  33,O  26,Co  0,C  31)    -88.7791         0.011427   
    367. D(C  33,O  26,Co  0,C  40)    -57.4093         0.011427   
    368. D(C  33,O  26,Co  0,O  25)   -115.1698         0.011427   
    369. D(C  33,O  26,Co  0,N  19)     68.6081         0.011427   
    370. D(C  33,O  26,Co  0,C  32)    -13.9836         0.011427   
    371. D(C  33,O  26,Co  0,C  37)     -6.2053         0.011427   
    372. D(C  33,O  26,Co  0,C  34)    -15.3542         0.011427   
    373. D(C  33,O  26,Co  0,N   7)    155.6582         0.011427   
    374. D(C  33,O  26,O  24,C  32)    -13.2023         0.001500   
    375. D(C  33,O  26,Co  0,N  27)    -26.5706         0.011427   
    376. D(C  40,N  27,Co  0,C  37)   -116.1974         0.005673   
    377. D(C  40,N  27,Co  0,O  26)    -80.6688         0.005673   
    378. D(C  37,N  27,N   7,C   6)     53.4258         0.001500   
    379. D(C  40,N  27,Co  0,C  34)    119.5666         0.005673   
    380. D(C  34,N  27,Co  0,O  24)    -19.5746         0.005673   
    381. D(C  40,N  27,N   7,C   6)    -62.4578         0.001500   
    382. D(C  34,N  27,Co  0,C  31)   -112.9314         0.005673   
    383. D(C  37,N  27,N   7,C   4)   -126.4231         0.001500   
    384. D(C  34,N  27,Co  0,C  33)    145.4527         0.005673   
    385. D(C  37,N  27,Co  0,C  32)   -136.7944         0.005673   
    386. D(C  34,N  27,Co  0,C  37)    124.2359         0.005673   
    387. D(C  37,N  27,Co  0,N  19)    -53.7349         0.005673   
    388. D(C  37,N  27,Co  0,O  25)    127.1149         0.005673   
    389. D(C  37,N  27,Co  0,C  33)     21.2168         0.005673   
    390. D(C  40,N  27,Co  0,N  19)   -169.9324         0.005673   
    391. D(C  40,N  27,Co  0,O  24)     99.9920         0.005673   
    392. D(C  37,N  27,Co  0,C  31)    122.8327         0.005673   
    393. D(C  40,N  27,Co  0,O  25)     10.9175         0.005673   
    394. D(C  34,N  27,Co  0,O  25)   -108.6491         0.005673   
    395. D(C  37,N  27,Co  0,O  24)   -143.8105         0.005673   
    396. D(C  40,N  27,Co  0,C  32)    107.0082         0.005673   
    397. D(C  34,N  27,Co  0,N  19)     70.5010         0.005673   
    398. D(C  34,N  27,Co  0,C  40)   -119.5666         0.005673   
    399. D(C  34,N  27,N   7,C   4)     -1.5956         0.001500   
    400. D(C  34,N  27,N   7,C   6)    178.2532         0.001500   
    401. D(C  37,N  27,Co  0,O  26)     35.5287         0.005673   
    402. D(C  37,N  27,Co  0,C  40)    116.1974         0.005673   
    403. D(C  40,N  27,N   7,C   4)    117.6934         0.001500   
    404. D(C  37,N  27,Co  0,C  34)   -124.2359         0.005673   
    405. D(C  40,N  27,Co  0,C  33)    -94.9807         0.005673   
    406. D(C  34,N  27,Co  0,O  26)    159.7646         0.005673   
    407. D(C  34,N  27,Co  0,C  32)    -12.5585         0.005673   
    408. D(C  40,N  27,Co  0,C  31)      6.6353         0.005673   
    409. D(C  40,C  31,Co  0,O  24)    -93.9228         0.001528   
    410. D(C  40,C  31,Co  0,O  26)     81.8003         0.001528   
    411. D(C  40,C  31,Co  0,O  25)   -177.0657         0.001528   
    412. D(C  40,C  31,Co  0,C  34)    -35.3068         0.001528   
    413. D(C  40,C  31,Co  0,N   7)    172.9237         0.001528   
    414. D(O  29,C  31,Co  0,N  27)   -175.5173         0.001528   
    415. D(O  25,C  31,Co  0,N  27)    170.5120         0.001528   
    416. D(O  29,C  31,Co  0,O  25)     13.9707         0.001528   
    417. D(C  40,C  31,O  25,Co  0)      3.2417         0.040757   
    418. D(O  25,C  31,Co  0,C  33)   -130.1578         0.001528   
    419. D(O  25,C  31,Co  0,C  34)    141.7589         0.001528   
    420. D(O  29,C  31,Co  0,N  19)   -166.7438         0.001528   
    421. D(O  29,C  31,Co  0,N   7)      3.9601         0.001528   
    422. D(O  29,C  31,Co  0,O  26)    -87.1633         0.001528   
    423. D(O  29,C  31,Co  0,C  34)    155.7296         0.001528   
    424. D(O  29,C  31,Co  0,C  37)   -148.9541         0.001528   
    425. D(O  25,C  31,Co  0,N  19)    179.2855         0.001528   
    426. D(O  29,C  31,Co  0,C  33)   -116.1871         0.001528   
    427. D(O  29,C  31,Co  0,C  40)   -168.9636         0.001528   
    428. D(C  40,C  31,Co  0,N  19)      2.2198         0.001528   
    429. D(O  29,C  31,Co  0,O  24)     97.1136         0.001528   
    430. D(C  40,C  31,Co  0,N  27)     -6.5537         0.001528   
    431. D(C  40,C  31,Co  0,C  32)    -66.7459         0.001528   
    432. D(O  25,C  31,Co  0,C  37)   -162.9248         0.001528   
    433. D(C  40,C  31,Co  0,C  33)     52.7765         0.001528   
    434. D(C  40,C  31,Co  0,C  37)     20.0095         0.001528   
    435. D(O  25,C  31,Co  0,C  40)    177.0657         0.001528   
    436. D(O  25,C  31,Co  0,C  32)    110.3198         0.001528   
    437. D(O  25,C  31,Co  0,N   7)    -10.0106         0.001528   
    438. D(O  29,C  31,O  25,Co  0)   -174.0355         0.040757   
    439. D(O  25,C  31,Co  0,O  26)   -101.1340         0.001528   
    440. D(O  29,C  31,Co  0,C  32)    124.2905         0.001528   
    441. D(O  25,C  31,Co  0,O  24)     83.1429         0.001528   
    442. D(C  34,C  32,O  24,Co  0)     -3.3716         0.034396   
    443. D(O  30,C  32,Co  0,C  37)    152.1745         0.001530   
    444. D(C  34,C  32,Co  0,N  19)    -85.8448         0.001530   
    445. D(C  34,C  32,Co  0,C  33)    -10.0127         0.001530   
    446. D(O  30,C  32,Co  0,C  40)   -155.8264         0.001530   
    447. D(O  24,C  32,Co  0,N   7)     12.5904         0.001530   
    448. D(O  30,C  32,Co  0,N  27)    173.3538         0.001530   
    449. D(O  30,C  32,Co  0,O  24)    -21.6790         0.001530   
    450. D(O  24,C  32,Co  0,C  31)   -104.2566         0.001530   
    451. D(O  24,C  32,Co  0,C  33)    173.0209         0.001530   
    452. D(O  24,C  32,Co  0,C  37)    173.8535         0.001530   
    453. D(O  30,C  32,Co  0,N  19)     75.5098         0.001530   
    454. D(O  30,C  32,Co  0,C  31)   -125.9356         0.001530   
    455. D(O  30,C  32,Co  0,C  33)    151.3419         0.001530   
    456. D(O  30,C  32,Co  0,C  34)    161.3546         0.001530   
    457. D(O  30,C  32,Co  0,O  25)   -100.7138         0.001530   
    458. D(C  34,C  32,Co  0,N   7)   -170.4432         0.001530   
    459. D(C  34,C  32,Co  0,O  26)     -2.3305         0.001530   
    460. D(O  24,C  32,Co  0,C  40)   -134.1474         0.001530   
    461. D(C  34,C  32,Co  0,N  27)     11.9992         0.001530   
    462. D(C  34,C  32,Co  0,C  31)     72.7098         0.001530   
    463. D(O  30,C  32,Co  0,N   7)     -9.0886         0.001530   
    464. D(C  34,C  32,Co  0,C  37)     -9.1802         0.001530   
    465. D(C  34,C  32,Co  0,C  40)     42.8189         0.001530   
    466. D(O  24,C  32,Co  0,C  34)   -176.9664         0.001530   
    467. D(O  30,C  32,O  24,Co  0)    170.9736         0.034396   
    468. D(O  24,C  32,Co  0,O  26)   -179.2969         0.001530   
    469. D(C  34,C  32,Co  0,O  24)    176.9664         0.001530   
    470. D(O  24,C  32,Co  0,N  19)     97.1888         0.001530   
    471. D(O  24,C  32,Co  0,O  25)    -79.0348         0.001530   
    472. D(O  24,C  32,Co  0,N  27)   -164.9672         0.001530   
    473. D(C  34,C  32,Co  0,O  25)     97.9316         0.001530   
    474. D(O  30,C  32,Co  0,O  26)    159.0241         0.001530   
    475. D(O  28,C  33,Co  0,N  27)   -169.7708         0.001536   
    476. D(O  26,C  33,Co  0,N  19)   -108.7164         0.001536   
    477. D(O  26,C  33,Co  0,O  24)    177.4263         0.001536   
    478. D(O  28,C  33,Co  0,N  19)    -67.8361         0.001536   
    479. D(O  26,C  33,Co  0,N  27)    149.3489         0.001536   
    480. D(O  26,C  33,Co  0,C  31)     89.1683         0.001536   
    481. D(O  26,C  33,Co  0,C  32)    171.4426         0.001536   
    482. D(O  26,C  33,Co  0,C  34)    166.1304         0.001536   
    483. D(O  26,C  33,Co  0,C  37)    169.9113         0.001536   
    484. D(O  26,C  33,Co  0,C  40)    115.7617         0.001536   
    485. D(O  26,C  33,Co  0,O  25)     68.3416         0.001536   
    486. D(O  28,C  33,Co  0,N   7)     12.8542         0.001536   
    487. D(O  28,C  33,Co  0,O  24)   -141.6934         0.001536   
    488. D(O  28,C  33,Co  0,O  25)    109.2220         0.001536   
    489. D(O  26,C  33,Co  0,N   7)    -28.0262         0.001536   
    490. D(O  28,C  33,Co  0,O  26)     40.8804         0.001536   
    491. D(O  28,C  33,Co  0,C  31)    130.0486         0.001536   
    492. D(O  28,C  33,O  26,Co  0)   -162.9031         0.033153   
    493. D(O  28,C  33,Co  0,C  34)   -152.9892         0.001536   
    494. D(O  28,C  33,Co  0,C  37)   -149.2083         0.001536   
    495. D(O  28,C  33,Co  0,C  40)    156.6421         0.001536   
    496. D(C  37,C  33,Co  0,N   7)    162.0625         0.001536   
    497. D(C  37,C  33,Co  0,N  19)     81.3722         0.001536   
    498. D(C  37,C  33,Co  0,O  24)      7.5149         0.001536   
    499. D(C  37,C  33,Co  0,O  25)   -101.5697         0.001536   
    500. D(C  37,C  33,Co  0,O  26)   -169.9113         0.001536   
    501. D(C  37,C  33,Co  0,N  27)    -20.5625         0.001536   
    502. D(C  37,C  33,Co  0,C  31)    -80.7431         0.001536   
    503. D(C  37,C  33,Co  0,C  32)      1.5313         0.001536   
    504. D(C  37,C  33,Co  0,C  34)     -3.7809         0.001536   
    505. D(O  28,C  33,Co  0,C  32)   -147.6770         0.001536   
    506. D(C  37,C  33,Co  0,C  40)    -54.1496         0.001536   
    507. D(C  37,C  33,O  26,Co  0)     11.0512         0.033153   
    508. D(N  27,C  34,Co  0,N   7)    176.1382         0.001512   
    509. D(H  36,C  34,C  32,O  24)   -135.6413         0.014020   
    510. D(N  27,C  34,Co  0,O  24)    157.2932         0.001512   
    511. D(N  27,C  34,Co  0,O  25)     73.1493         0.001512   
    512. D(H  35,C  34,C  32,Co  0)    108.2513         0.014020   
    513. D(N  27,C  34,Co  0,C  31)     56.6973         0.001512   
    514. D(N  27,C  34,Co  0,C  32)    158.9388         0.001512   
    515. D(Co  0,C  34,C  32,O  30)   -172.1377         0.014020   
    516. D(N  27,C  34,Co  0,C  37)    -32.3429         0.001512   
    517. D(N  27,C  34,Co  0,C  40)     34.3748         0.001512   
    518. D(C  32,C  34,Co  0,N   7)     17.1994         0.001512   
    519. D(C  32,C  34,Co  0,N  19)     91.5945         0.001512   
    520. D(C  32,C  34,Co  0,O  24)     -1.6455         0.001512   
    521. D(C  32,C  34,Co  0,O  25)    -85.7894         0.001512   
    522. D(C  32,C  34,N  27,C  40)    -96.7579         0.015226   
    523. D(C  32,C  34,Co  0,N  27)   -158.9388         0.001512   
    524. D(C  32,C  34,Co  0,C  31)   -102.2415         0.001512   
    525. D(Co  0,C  34,N  27,C  37)    116.8993         0.015226   
    526. D(C  32,C  34,Co  0,C  37)    168.7183         0.001512   
    527. D(C  32,C  34,Co  0,C  40)   -124.5640         0.001512   
    528. D(H  36,C  34,Co  0,C  32)     96.4456         0.001512   
    529. D(H  35,C  34,Co  0,N  19)    -11.2672         0.001512   
    530. D(H  35,C  34,Co  0,O  24)   -104.5072         0.001512   
    531. D(H  35,C  34,Co  0,O  25)    171.3489         0.001512   
    532. D(H  35,C  34,Co  0,O  26)     75.7497         0.001512   
    533. D(H  35,C  34,Co  0,N  27)     98.1995         0.001512   
    534. D(H  35,C  34,Co  0,C  31)    154.8968         0.001512   
    535. D(H  35,C  34,Co  0,C  32)   -102.8617         0.001512   
    536. D(H  35,C  34,Co  0,C  33)     68.3766         0.001512   
    537. D(H  35,C  34,Co  0,C  37)     65.8566         0.001512   
    538. D(H  35,C  34,Co  0,C  40)    132.5743         0.001512   
    539. D(H  36,C  34,Co  0,N   7)    113.6450         0.001512   
    540. D(H  36,C  34,Co  0,N  19)   -171.9599         0.001512   
    541. D(H  36,C  34,Co  0,O  24)     94.8001         0.001512   
    542. D(H  36,C  34,Co  0,O  25)     10.6562         0.001512   
    543. D(H  36,C  34,Co  0,O  26)    -84.9429         0.001512   
    544. D(H  36,C  34,Co  0,N  27)    -62.4931         0.001512   
    545. D(H  35,C  34,Co  0,N   7)    -85.6623         0.001512   
    546. D(H  36,C  34,Co  0,C  31)     -5.7958         0.001512   
    547. D(H  36,C  34,Co  0,C  33)    -92.3161         0.001512   
    548. D(H  36,C  34,Co  0,C  37)    -94.8361         0.001512   
    549. D(C  32,C  34,Co  0,C  33)    171.2383         0.001512   
    550. D(H  36,C  34,Co  0,C  40)    -28.1183         0.001512   
    551. D(Co  0,C  34,N  27,C  40)   -117.4084         0.015226   
    552. D(C  32,C  34,N  27,Co  0)     20.6505         0.015226   
    553. D(C  32,C  34,Co  0,O  26)    178.6114         0.001512   
    554. D(C  32,C  34,N  27,C  37)    137.5498         0.015226   
    555. D(H  35,C  34,N  27,Co  0)   -100.2652         0.015226   
    556. D(H  35,C  34,N  27,C  37)     16.6342         0.015226   
    557. D(H  35,C  34,N  27,C  40)    142.3264         0.015226   
    558. D(H  36,C  34,N  27,Co  0)    142.4615         0.015226   
    559. D(H  36,C  34,N  27,C  37)   -100.6391         0.015226   
    560. D(H  36,C  34,N  27,C  40)     25.0531         0.015226   
    561. D(N  27,C  34,Co  0,C  33)    -29.8229         0.001512   
    562. D(Co  0,C  34,C  32,O  24)      2.1653         0.014020   
    563. D(N  27,C  34,C  32,Co  0)    -14.5404         0.014020   
    564. D(N  27,C  34,C  32,O  24)    -12.3751         0.014020   
    565. D(N  27,C  34,Co  0,O  26)    -22.4498         0.001512   
    566. D(N  27,C  34,C  32,O  30)    173.3219         0.014020   
    567. D(H  35,C  34,C  32,O  24)    110.4166         0.014020   
    568. D(H  35,C  34,C  32,O  30)    -63.8864         0.014020   
    569. D(N  27,C  34,Co  0,N  19)   -109.4668         0.001512   
    570. D(H  36,C  34,C  32,Co  0)   -137.8066         0.014020   
    571. D(H  36,C  34,C  32,O  30)     50.0557         0.014020   
    572. D(N  27,C  37,Co  0,N   7)   -175.8303         0.001519   
    573. D(H  39,C  37,C  33,O  26)    138.7321         0.013430   
    574. D(N  27,C  37,Co  0,O  24)     40.2635         0.001519   
    575. D(N  27,C  37,Co  0,O  25)    -56.6372         0.001519   
    576. D(H  38,C  37,C  33,Co  0)    -95.9316         0.013430   
    577. D(N  27,C  37,Co  0,C  31)    -48.6295         0.001519   
    578. D(N  27,C  37,Co  0,C  32)     37.0995         0.001519   
    579. D(Co  0,C  37,C  33,O  28)    166.5750         0.013430   
    580. D(N  27,C  37,Co  0,C  34)     31.1132         0.001519   
    581. D(N  27,C  37,Co  0,C  40)    -35.6315         0.001519   
    582. D(C  33,C  37,Co  0,N   7)    -31.5868         0.001519   
    583. D(C  33,C  37,Co  0,N  19)    -91.4425         0.001519   
    584. D(C  33,C  37,Co  0,O  24)   -175.4930         0.001519   
    585. D(C  33,C  37,Co  0,O  25)     87.6063         0.001519   
    586. D(C  33,C  37,N  27,C  40)     80.0265         0.015887   
    587. D(C  33,C  37,Co  0,N  27)    144.2435         0.001519   
    588. D(C  33,C  37,Co  0,C  31)     95.6141         0.001519   
    589. D(Co  0,C  37,N  27,C  34)   -118.6849         0.015887   
    590. D(C  33,C  37,Co  0,C  34)    175.3567         0.001519   
    591. D(C  33,C  37,Co  0,C  40)    108.6120         0.001519   
    592. D(H  39,C  37,Co  0,C  32)     81.3575         0.001519   
    593. D(H  38,C  37,Co  0,N  19)     13.3562         0.001519   
    594. D(H  38,C  37,Co  0,O  24)    -70.6943         0.001519   
    595. D(H  38,C  37,Co  0,O  25)   -167.5950         0.001519   
    596. D(H  38,C  37,Co  0,O  26)    110.3337         0.001519   
    597. D(H  38,C  37,Co  0,N  27)   -110.9578         0.001519   
    598. D(H  38,C  37,Co  0,C  31)   -159.5872         0.001519   
    599. D(H  38,C  37,Co  0,C  32)    -73.8583         0.001519   
    600. D(H  38,C  37,Co  0,C  33)    104.7987         0.001519   
    601. D(H  38,C  37,Co  0,C  34)    -79.8446         0.001519   
    602. D(H  38,C  37,Co  0,C  40)   -146.5893         0.001519   
    603. D(H  39,C  37,Co  0,N   7)   -131.5723         0.001519   
    604. D(H  39,C  37,Co  0,N  19)    168.5719         0.001519   
    605. D(H  39,C  37,Co  0,O  24)     84.5215         0.001519   
    606. D(H  39,C  37,Co  0,O  25)    -12.3792         0.001519   
    607. D(H  39,C  37,Co  0,O  26)    -94.4505         0.001519   
    608. D(H  39,C  37,Co  0,N  27)     44.2580         0.001519   
    609. D(H  38,C  37,Co  0,N   7)     73.2119         0.001519   
    610. D(H  39,C  37,Co  0,C  31)     -4.3715         0.001519   
    611. D(H  39,C  37,Co  0,C  33)    -99.9855         0.001519   
    612. D(H  39,C  37,Co  0,C  34)     75.3711         0.001519   
    613. D(C  33,C  37,Co  0,C  32)   -178.6570         0.001519   
    614. D(H  39,C  37,Co  0,C  40)      8.6265         0.001519   
    615. D(Co  0,C  37,N  27,C  40)    114.8792         0.015887   
    616. D(C  33,C  37,N  27,Co  0)    -34.8527         0.015887   
    617. D(C  33,C  37,Co  0,O  26)      5.5350         0.001519   
    618. D(C  33,C  37,N  27,C  34)   -153.5377         0.015887   
    619. D(H  38,C  37,N  27,Co  0)     82.6467         0.015887   
    620. D(H  38,C  37,N  27,C  34)    -36.0383         0.015887   
    621. D(H  38,C  37,N  27,C  40)   -162.4741         0.015887   
    622. D(H  39,C  37,N  27,Co  0)   -156.9123         0.015887   
    623. D(H  39,C  37,N  27,C  34)     84.4027         0.015887   
    624. D(H  39,C  37,N  27,C  40)    -42.0331         0.015887   
    625. D(N  27,C  37,Co  0,C  33)   -144.2435         0.001519   
    626. D(Co  0,C  37,C  33,O  26)     -7.3206         0.013430   
    627. D(N  27,C  37,C  33,Co  0)     24.8378         0.013430   
    628. D(N  27,C  37,C  33,O  26)     17.5172         0.013430   
    629. D(N  27,C  37,Co  0,O  26)   -138.7085         0.001519   
    630. D(N  27,C  37,C  33,O  28)   -168.5872         0.013430   
    631. D(H  38,C  37,C  33,O  26)   -103.2522         0.013430   
    632. D(H  38,C  37,C  33,O  28)     70.6434         0.013430   
    633. D(N  27,C  37,Co  0,N  19)    124.3140         0.001519   
    634. D(H  39,C  37,C  33,Co  0)    146.0527         0.013430   
    635. D(H  39,C  37,C  33,O  28)    -47.3723         0.013430   
    636. D(N  27,C  40,Co  0,N   7)    179.6213         0.001511   
    637. D(H  48,C  40,C  31,O  25)   -116.3053         0.016938   
    638. D(N  27,C  40,Co  0,O  24)    -80.8008         0.001511   
    639. D(N  27,C  40,Co  0,O  25)   -167.1450         0.001511   
    640. D(H  47,C  40,C  31,Co  0)    132.4694         0.016938   
    641. D(N  27,C  40,Co  0,C  31)   -168.7059         0.001511   
    642. D(N  27,C  40,Co  0,C  32)    -61.0023         0.001511   
    643. D(Co  0,C  40,C  31,O  29)    175.2231         0.016938   
    644. D(N  27,C  40,Co  0,C  34)    -33.8905         0.001511   
    645. D(N  27,C  40,Co  0,C  37)     36.5609         0.001511   
    646. D(C  31,C  40,Co  0,N   7)    -11.6729         0.001511   
    647. D(C  31,C  40,Co  0,N  19)   -178.9332         0.001511   
    648. D(C  31,C  40,Co  0,O  24)     87.9050         0.001511   
    649. D(C  31,C  40,Co  0,O  25)      1.5609         0.001511   
    650. D(C  31,C  40,N  27,C  37)   -124.2204         0.012992   
    651. D(C  31,C  40,Co  0,N  27)    168.7059         0.001511   
    652. D(C  31,C  40,Co  0,C  32)    107.7036         0.001511   
    653. D(Co  0,C  40,N  27,C  34)    117.5979         0.012992   
    654. D(C  31,C  40,Co  0,C  34)    134.8154         0.001511   
    655. D(C  31,C  40,Co  0,C  37)   -154.7332         0.001511   
    656. D(H  48,C  40,Co  0,C  32)   -155.1382         0.001511   
    657. D(H  47,C  40,Co  0,N  19)     84.9803         0.001511   
    658. D(H  47,C  40,Co  0,O  24)     -8.1815         0.001511   
    659. D(H  47,C  40,Co  0,O  25)    -94.5256         0.001511   
    660. D(H  47,C  40,Co  0,O  26)    168.9474         0.001511   
    661. D(H  47,C  40,Co  0,N  27)     72.6193         0.001511   
    662. D(H  47,C  40,Co  0,C  31)    -96.0865         0.001511   
    663. D(H  47,C  40,Co  0,C  32)     11.6171         0.001511   
    664. D(H  47,C  40,Co  0,C  33)    142.8528         0.001511   
    665. D(H  47,C  40,Co  0,C  34)     38.7289         0.001511   
    666. D(H  47,C  40,Co  0,C  37)    109.1803         0.001511   
    667. D(H  48,C  40,Co  0,N   7)     85.4853         0.001511   
    668. D(H  48,C  40,Co  0,N  19)    -81.7750         0.001511   
    669. D(H  48,C  40,Co  0,O  24)   -174.9368         0.001511   
    670. D(H  48,C  40,Co  0,O  25)     98.7191         0.001511   
    671. D(H  48,C  40,Co  0,O  26)      2.1921         0.001511   
    672. D(H  48,C  40,Co  0,N  27)    -94.1360         0.001511   
    673. D(H  47,C  40,Co  0,N   7)   -107.7594         0.001511   
    674. D(H  48,C  40,Co  0,C  31)     97.1582         0.001511   
    675. D(H  48,C  40,Co  0,C  33)    -23.9025         0.001511   
    676. D(H  48,C  40,Co  0,C  34)   -128.0264         0.001511   
    677. D(C  31,C  40,Co  0,C  33)   -121.0606         0.001511   
    678. D(H  48,C  40,Co  0,C  37)    -57.5750         0.001511   
    679. D(Co  0,C  40,N  27,C  37)   -112.9808         0.012992   
    680. D(C  31,C  40,N  27,Co  0)    -11.2396         0.012992   
    681. D(C  31,C  40,Co  0,O  26)    -94.9661         0.001511   
    682. D(C  31,C  40,N  27,C  34)    106.3584         0.012992   
    683. D(H  47,C  40,N  27,Co  0)   -133.1765         0.012992   
    684. D(H  47,C  40,N  27,C  34)    -15.5786         0.012992   
    685. D(H  47,C  40,N  27,C  37)    113.8427         0.012992   
    686. D(H  48,C  40,N  27,Co  0)    106.4523         0.012992   
    687. D(H  48,C  40,N  27,C  34)   -135.9498         0.012992   
    688. D(H  48,C  40,N  27,C  37)     -6.5285         0.012992   
    689. D(N  27,C  40,Co  0,C  33)     70.2335         0.001511   
    690. D(Co  0,C  40,C  31,O  25)     -2.0249         0.016938   
    691. D(N  27,C  40,C  31,Co  0)      7.9409         0.016938   
    692. D(N  27,C  40,C  31,O  25)      5.9159         0.016938   
    693. D(N  27,C  40,Co  0,O  26)     96.3281         0.001511   
    694. D(N  27,C  40,C  31,O  29)   -176.8360         0.016938   
    695. D(H  47,C  40,C  31,O  25)    130.4444         0.016938   
    696. D(H  47,C  40,C  31,O  29)    -52.3075         0.016938   
    697. D(N  27,C  40,Co  0,N  19)     12.3609         0.001511   
    698. D(H  48,C  40,C  31,Co  0)   -114.2803         0.016938   
    699. D(H  48,C  40,C  31,O  29)     60.9428         0.016938   
    700. C_0(Co  0)                     -7.8374         1.000000 C 
    701. C_1(Co  0)                      0.0843         1.000000 C 
    702. C_2(Co  0)                    -12.0259         1.000000 C 
    703. C_1(C   1)                      0.1413         1.000000 C 
    704. C_0(C   1)                     -3.0424         1.000000 C 
    705. C_2(C   1)                     -8.1789         1.000000 C 
    706. C_2(C   2)                     -9.6879         1.000000 C 
    707. C_1(C   2)                      0.2523         1.000000 C 
    708. C_0(C   2)                     -2.8154         1.000000 C 
    709. C_0(C  13)                     -8.2254         1.000000 C 
    710. C_2(C  13)                     -5.9949         1.000000 C 
    711. C_1(C  13)                     -2.5407         1.000000 C 
    712. C_2(C  14)                     -7.3619         1.000000 C 
    713. C_1(C  14)                     -3.1277         1.000000 C 
    714. C_0(C  14)                     -7.8704         1.000000 C 
    -----------------------------------------------------------------

Number of atoms                         .... 50
Number of degrees of freedom            .... 714

         *************************************************************
         *                GEOMETRY OPTIMIZATION CYCLE   1            *
         *************************************************************
---------------------------------
CARTESIAN COORDINATES (ANGSTROEM)
---------------------------------
  Co    -7.837370    0.084290  -12.025930
  C     -3.042370    0.141290   -8.178930
  C     -2.815370    0.252290   -9.687930
  C     -4.004880   -0.165710  -10.529470
  C     -5.209490    0.401700  -10.576110
  N     -3.960860   -1.240290  -11.441390
  C     -5.236280   -1.354550  -12.098630
  N     -6.009470   -0.275500  -11.532030
  H     -1.948700   -0.392410   -9.948400
  H     -2.552620    1.301530   -9.941330
  H     -3.146800   -1.847300  -11.614270
  H     -5.529270    1.254850   -9.993300
  H     -5.118980   -1.206510  -13.192350
  C     -8.225370   -2.540710   -5.994930
  C     -7.870370   -3.127710   -7.361930
  C     -8.155390   -1.966080   -8.387810
  C     -7.973770   -1.929310   -9.721360
  N     -8.651230   -0.688850   -8.007470
  C     -8.761500    0.173370   -9.143690
  N     -8.351980   -0.644600  -10.257890
  H     -8.501340   -4.011940   -7.592130
  H     -6.796570   -3.409260   -7.393370
  H     -7.569700   -2.740310  -10.311730
  H     -9.816340    0.477870   -9.245410
  O     -7.759400    1.747750  -11.323910
  O     -7.252700    0.751110  -13.593840
  O     -8.055430   -1.562580  -12.752820
  N     -9.652860    0.454190  -12.596590
  O     -9.699910   -3.076120  -12.907290
  O     -7.917190    1.370330  -15.617060
  O     -9.106020    3.391480  -10.640200
  C     -8.202050    1.017770  -14.483980
  C     -8.970200    2.337830  -11.240060
  C     -9.363350   -1.913400  -12.756320
  C    -10.157770    1.594980  -11.792650
  H    -10.808970    1.270200  -10.959880
  H    -10.797450    2.283060  -12.385340
  C    -10.364980   -0.830090  -12.426450
  H    -10.705520   -0.993980  -11.382260
  H    -11.263740   -0.874890  -13.082320
  C     -9.604270    0.808880  -14.059600
  H     -7.580400   -1.669750   -5.747020
  H     -8.037660   -3.314860   -5.221700
  H     -9.303530   -2.276880   -5.934750
  H     -3.278200   -0.909310   -7.906190
  H     -3.885260    0.794990   -7.869620
  H     -2.126130    0.457520   -7.637200
  H    -10.192570    1.717270  -14.309440
  H     -9.997900    0.000340  -14.716890
  H     -8.893980   -0.365560   -7.062060

----------------------------
CARTESIAN COORDINATES (A.U.)
----------------------------
  NO LB      ZA    FRAG     MASS         X           Y           Z
   0 Co   27.0000    0    58.930  -14.810483    0.159285  -22.725714
   1 C     6.0000    0    12.011   -5.749246    0.266999  -15.455938
   2 C     6.0000    0    12.011   -5.320278    0.476759  -18.307535
   3 C     6.0000    0    12.011   -7.568126   -0.313147  -19.897815
   4 C     6.0000    0    12.011   -9.844509    0.759103  -19.985951
   5 N     7.0000    0    14.007   -7.484941   -2.343808  -21.621094
   6 C     6.0000    0    12.011   -9.895135   -2.559729  -22.863097
   7 N     7.0000    0    14.007  -11.356253   -0.520620  -21.792378
   8 H     1.0000    0     1.008   -3.682509   -0.741547  -18.799751
   9 H     1.0000    0     1.008   -4.823753    2.459535  -18.786391
  10 H     1.0000    0     1.008   -5.946590   -3.490891  -21.947790
  11 H     1.0000    0     1.008  -10.448806    2.371323  -18.884600
  12 H     1.0000    0     1.008   -9.673470   -2.279973  -24.929929
  13 C     6.0000    0    12.011  -15.543697   -4.801246  -11.328776
  14 C     6.0000    0    12.011  -14.872844   -5.910515  -13.912032
  15 C     6.0000    0    12.011  -15.411454   -3.715353  -15.850664
  16 C     6.0000    0    12.011  -15.068242   -3.645868  -18.370708
  17 N     7.0000    0    14.007  -16.348455   -1.301738  -15.131925
  18 C     6.0000    0    12.011  -16.556836    0.327622  -17.279070
  19 N     7.0000    0    14.007  -15.782955   -1.218117  -19.384603
  20 H     1.0000    0     1.008  -16.065204   -7.581468  -14.347046
  21 H     1.0000    0     1.008  -12.843656   -6.442568  -13.971445
  22 H     1.0000    0     1.008  -14.304660   -5.178435  -19.486346
  23 H     1.0000    0     1.008  -18.550194    0.903043  -17.471293
  24 O     8.0000    0    15.999  -14.663141    3.302769  -21.399089
  25 O     8.0000    0    15.999  -13.705617    1.419392  -25.688635
  26 O     8.0000    0    15.999  -15.222557   -2.952848  -24.099337
  27 N     7.0000    0    14.007  -18.241262    0.858295  -23.804105
  28 O     8.0000    0    15.999  -18.330173   -5.813024  -24.391243
  29 O     8.0000    0    15.999  -14.961321    2.589548  -29.511966
  30 O     8.0000    0    15.999  -17.207884    6.408968  -20.107064
  31 C     6.0000    0    12.011  -15.499628    1.923307  -27.370756
  32 C     6.0000    0    12.011  -16.951221    4.417858  -21.240635
  33 C     6.0000    0    12.011  -17.694167   -3.615802  -24.105951
  34 C     6.0000    0    12.011  -19.195403    3.014075  -22.284879
  35 H     1.0000    0     1.008  -20.425993    2.400330  -20.711172
  36 H     1.0000    0     1.008  -20.404223    4.314358  -23.404901
  37 C     6.0000    0    12.011  -19.586974   -1.568643  -23.482587
  38 H     1.0000    0     1.008  -20.230501   -1.878350  -21.509354
  39 H     1.0000    0     1.008  -21.285384   -1.653302  -24.722002
  40 C     6.0000    0    12.011  -18.149440    1.528562  -26.568794
  41 H     1.0000    0     1.008  -14.324880   -3.155370  -10.860294
  42 H     1.0000    0     1.008  -15.188976   -6.264178   -9.867583
  43 H     1.0000    0     1.008  -17.581124   -4.302680  -11.215052
  44 H     1.0000    0     1.008   -6.194900   -1.718347  -14.940534
  45 H     1.0000    0     1.008   -7.342077    1.502313  -14.871427
  46 H     1.0000    0     1.008   -4.017803    0.864588  -14.432216
  47 H     1.0000    0     1.008  -19.261166    3.245170  -27.040923
  48 H     1.0000    0     1.008  -18.893293    0.000643  -27.810892
  49 H     1.0000    0     1.008  -16.807186   -0.690808  -13.345359

--------------------------------
INTERNAL COORDINATES (ANGSTROEM)
--------------------------------
 Co     0   0   0     0.000000000000     0.00000000     0.00000000
 C      1   0   0     6.147738039312     0.00000000     0.00000000
 C      2   1   0     1.530010130685    59.94877979     0.00000000
 C      3   2   1     1.515865301305   114.27415090   343.38868921
 C      4   3   2     1.332371813647   127.69529779    63.65592477
 N      4   3   2     1.410056035482   123.00281042   241.62936566
 C      6   4   3     1.439345664391   109.15617832   181.33589498
 N      5   4   3     1.418573539440   109.27763004   177.85731698
 H      3   2   1     1.111125375374   107.74795556   222.38183531
 H      3   2   1     1.110924704964   109.18241375   105.25033033
 H      6   4   3     1.030069084140   125.61266160     1.18034061
 H      5   4   3     1.081569076389   125.75879586   358.84713856
 H      7   6   4     1.109909262057   110.22621673   118.68803838
 C     12   5   4     6.136953118649    89.60522469   261.85068235
 C     14  12   5     1.529471477341    63.45395441   343.13007285
 C     15  14  12     1.575769790198   104.89027332   322.48968502
 C     16  15  14     1.346363049032   129.83446019   177.65152443
 N     16  15  14     1.421911493061   123.44288698   359.37883740
 C     18  16  15     1.430586834030   110.84316627   177.75232840
 N     19  18  16     1.441604380994   104.47646198     1.85640054
 H     15  14  12     1.110395368236   111.04009231   203.18065858
 H     15  14  12     1.110542802462   110.30582735    80.99353758
 H     17  16  15     1.081448242774   124.79440069   359.18414447
 H     19  18  16     1.102612640051   108.26760191   120.12909565
 O      1   2   3     1.807210716242    73.42538285   258.38079352
 O      1   2   3     1.801341080806   106.74304651   342.20107141
 O      1   2   3     1.813311896117   110.67450882    80.41653194
 N      1   2   3     1.938680681727   155.89887264   214.32547562
 O     27   1   2     2.240307742901   136.84403667   124.70832822
 O     26   1   2     2.217746499693   143.14668225   185.73886668
 O     25   1   2     2.232194682683   140.42173562   216.33858128
 C     30  26   1     1.220374557093    30.93465166     9.02000547
 C     31  25   1     1.220023530306    31.38207437   346.88168392
 C     29  27   1     1.219828829345    31.23732944    23.71778163
 C     28   1   2     1.484134581431   107.80617141    22.23099856
 H     35  28   1     1.105915621239   112.48790361   259.73482062
 H     35  28   1     1.110822229207   112.52079653   142.46152195
 C     28   1   2     1.478322573865   104.56426030   257.99504881
 H     38  28   1     1.110477455782   112.59124522    82.64665369
 H     38  28   1     1.113526844984   110.85254430   203.08766590
 C     32  30  26     1.479849433186   121.88486817   182.85285090
 H     14  12   5     1.111763010088    53.55149084   134.37080942
 H     14  12   5     1.110147692652   144.17400099    68.01139839
 H     14  12   5     1.111601046644   108.33591151   237.83446706
 H      2   1  26     1.110748961962    88.81299985   228.15167478
 H      2   1  26     1.110612406828    65.65614509   116.52346522
 H      2   1  26     1.110391166842   162.08561095    40.87960721
 H     41  32  30     1.110715673654   108.77937358   307.69250636
 H     41  32  30     1.113872368182   105.55068944    60.94279506
 H     18  16  15     1.028223737666   127.63955743   359.04203969

---------------------------
INTERNAL COORDINATES (A.U.)
---------------------------
 Co     0   0   0     0.000000000000     0.00000000     0.00000000
 C      1   0   0    11.617541237389     0.00000000     0.00000000
 C      2   1   0     2.891300129120    59.94877979     0.00000000
 C      3   2   1     2.864570275380   114.27415090   343.38868921
 C      4   3   2     2.517817836348   127.69529779    63.65592477
 N      4   3   2     2.664619740544   123.00281042   241.62936566
 C      6   4   3     2.719969117745   109.15617832   181.33589498
 N      5   4   3     2.680715490369   109.27763004   177.85731698
 H      3   2   1     2.099722659907   107.74795556   222.38183531
 H      3   2   1     2.099343447790   109.18241375   105.25033033
 H      6   4   3     1.946548468043   125.61266160     1.18034061
 H      5   4   3     2.043869349293   125.75879586   358.84713856
 H      7   6   4     2.097424538790   110.22621673   118.68803838
 C     12   5   4    11.597160690961    89.60522469   261.85068235
 C     14  12   5     2.890282221819    63.45395441   343.13007285
 C     15  14  12     2.977773353580   104.89027332   322.48968502
 C     16  15  14     2.544257439503   129.83446019   177.65152443
 N     16  15  14     2.687023308561   123.44288698   359.37883740
 C     18  16  15     2.703417327110   110.84316627   177.75232840
 N     19  18  16     2.724237473539   104.47646198     1.85640054
 H     15  14  12     2.098343146341   111.04009231   203.18065858
 H     15  14  12     2.098621756650   110.30582735    80.99353758
 H     17  16  15     2.043641006854   124.79440069   359.18414447
 H     19  18  16     2.083635921496   108.26760191   120.12909565
 O      1   2   3     3.415133319985    73.42538285   258.38079352
 O      1   2   3     3.404041316505   106.74304651   342.20107141
 O      1   2   3     3.426662879043   110.67450882    80.41653194
 N      1   2   3     3.663575549587   155.89887264   214.32547562
 O     27   1   2     4.233568089785   136.84403667   124.70832822
 O     26   1   2     4.190933518882   143.14668225   185.73886668
 O     25   1   2     4.218236627867   140.42173562   216.33858128
 C     30  26   1     2.306173693711    30.93465166     9.02000547
 C     31  25   1     2.305510349218    31.38207437   346.88168392
 C     29  27   1     2.305142417723    31.23732944    23.71778163
 C     28   1   2     2.804607904787   107.80617141    22.23099856
 H     35  28   1     2.089877651367   112.48790361   259.73482062
 H     35  28   1     2.099149796673   112.52079653   142.46152195
 C     28   1   2     2.793624802199   104.56426030   257.99504881
 H     38  28   1     2.098498269322   112.59124522    82.64665369
 H     38  28   1     2.104260779789   110.85254430   203.08766590
 C     32  30  26     2.796510148160   121.88486817   182.85285090
 H     14  12   5     2.100927614890    53.55149084   134.37080942
 H     14  12   5     2.097875107316   144.17400099    68.01139839
 H     14  12   5     2.100621548337   108.33591151   237.83446706
 H      2   1  26     2.099011341646    88.81299985   228.15167478
 H      2   1  26     2.098753289840    65.65614509   116.52346522
 H      2   1  26     2.098335206856   162.08561095    40.87960721
 H     41  32  30     2.098948435859   108.77937358   307.69250636
 H     41  32  30     2.104913724007   105.55068944    60.94279506
 H     18  16  15     1.943061268586   127.63955743   359.04203969

---------------------
BASIS SET INFORMATION
---------------------
There are 5 groups of distinct atoms

 Group   1 Type Co  : 17s11p7d1f contracted to 6s4p4d1f pattern {842111/6311/4111/1}
 Group   2 Type C   : 7s4p1d contracted to 3s2p1d pattern {511/31/1}
 Group   3 Type N   : 7s4p1d contracted to 3s2p1d pattern {511/31/1}
 Group   4 Type H   : 4s1p contracted to 2s1p pattern {31/1}
 Group   5 Type O   : 7s4p1d contracted to 3s2p1d pattern {511/31/1}

Atom   0Co   basis set group =>   1
Atom   1C    basis set group =>   2
Atom   2C    basis set group =>   2
Atom   3C    basis set group =>   2
Atom   4C    basis set group =>   2
Atom   5N    basis set group =>   3
Atom   6C    basis set group =>   2
Atom   7N    basis set group =>   3
Atom   8H    basis set group =>   4
Atom   9H    basis set group =>   4
Atom  10H    basis set group =>   4
Atom  11H    basis set group =>   4
Atom  12H    basis set group =>   4
Atom  13C    basis set group =>   2
Atom  14C    basis set group =>   2
Atom  15C    basis set group =>   2
Atom  16C    basis set group =>   2
Atom  17N    basis set group =>   3
Atom  18C    basis set group =>   2
Atom  19N    basis set group =>   3
Atom  20H    basis set group =>   4
Atom  21H    basis set group =>   4
Atom  22H    basis set group =>   4
Atom  23H    basis set group =>   4
Atom  24O    basis set group =>   5
Atom  25O    basis set group =>   5
Atom  26O    basis set group =>   5
Atom  27N    basis set group =>   3
Atom  28O    basis set group =>   5
Atom  29O    basis set group =>   5
Atom  30O    basis set group =>   5
Atom  31C    basis set group =>   2
Atom  32C    basis set group =>   2
Atom  33C    basis set group =>   2
Atom  34C    basis set group =>   2
Atom  35H    basis set group =>   4
Atom  36H    basis set group =>   4
Atom  37C    basis set group =>   2
Atom  38H    basis set group =>   4
Atom  39H    basis set group =>   4
Atom  40C    basis set group =>   2
Atom  41H    basis set group =>   4
Atom  42H    basis set group =>   4
Atom  43H    basis set group =>   4
Atom  44H    basis set group =>   4
Atom  45H    basis set group =>   4
Atom  46H    basis set group =>   4
Atom  47H    basis set group =>   4
Atom  48H    basis set group =>   4
Atom  49H    basis set group =>   4
---------------------------------
AUXILIARY/J BASIS SET INFORMATION
---------------------------------
There are 5 groups of distinct atoms

 Group   1 Type Co  : 19s5p5d3f3g contracted to 8s5p5d2f3g pattern {121111111/11111/11111/21/111}
 Group   2 Type C   : 12s5p4d2f1g contracted to 6s4p3d1f1g pattern {711111/2111/211/2/1}
 Group   3 Type N   : 12s5p4d2f1g contracted to 6s4p3d1f1g pattern {711111/2111/211/2/1}
 Group   4 Type H   : 5s2p1d contracted to 3s1p1d pattern {311/2/1}
 Group   5 Type O   : 12s5p4d2f1g contracted to 6s4p3d1f1g pattern {711111/2111/211/2/1}

Atom   0Co   basis set group =>   1
Atom   1C    basis set group =>   2
Atom   2C    basis set group =>   2
Atom   3C    basis set group =>   2
Atom   4C    basis set group =>   2
Atom   5N    basis set group =>   3
Atom   6C    basis set group =>   2
Atom   7N    basis set group =>   3
Atom   8H    basis set group =>   4
Atom   9H    basis set group =>   4
Atom  10H    basis set group =>   4
Atom  11H    basis set group =>   4
Atom  12H    basis set group =>   4
Atom  13C    basis set group =>   2
Atom  14C    basis set group =>   2
Atom  15C    basis set group =>   2
Atom  16C    basis set group =>   2
Atom  17N    basis set group =>   3
Atom  18C    basis set group =>   2
Atom  19N    basis set group =>   3
Atom  20H    basis set group =>   4
Atom  21H    basis set group =>   4
Atom  22H    basis set group =>   4
Atom  23H    basis set group =>   4
Atom  24O    basis set group =>   5
Atom  25O    basis set group =>   5
Atom  26O    basis set group =>   5
Atom  27N    basis set group =>   3
Atom  28O    basis set group =>   5
Atom  29O    basis set group =>   5
Atom  30O    basis set group =>   5
Atom  31C    basis set group =>   2
Atom  32C    basis set group =>   2
Atom  33C    basis set group =>   2
Atom  34C    basis set group =>   2
Atom  35H    basis set group =>   4
Atom  36H    basis set group =>   4
Atom  37C    basis set group =>   2
Atom  38H    basis set group =>   4
Atom  39H    basis set group =>   4
Atom  40C    basis set group =>   2
Atom  41H    basis set group =>   4
Atom  42H    basis set group =>   4
Atom  43H    basis set group =>   4
Atom  44H    basis set group =>   4
Atom  45H    basis set group =>   4
Atom  46H    basis set group =>   4
Atom  47H    basis set group =>   4
Atom  48H    basis set group =>   4
Atom  49H    basis set group =>   4
------------------------------------------------------------------------------
                           ORCA GTO INTEGRAL CALCULATION
[...]
      pz      :     0.024916  p :     0.117655
      px      :     0.043853
      py      :     0.048886
 11 H s       :     0.884382  s :     0.884382
      pz      :     0.016027  p :     0.071940
      px      :     0.014395
      py      :     0.041518
 12 H s       :     0.875569  s :     0.875569
      pz      :     0.024396  p :     0.074236
      px      :     0.016667
      py      :     0.033173
 13 C s       :     2.852409  s :     2.852409
      pz      :     1.022036  p :     3.156433
      px      :     1.067813
      py      :     1.066585
      dz2     :     0.015929  d :     0.066484
      dxz     :     0.007351
      dyz     :     0.019583
      dx2y2   :     0.006691
      dxy     :     0.016929
 14 C s       :     2.840711  s :     2.840711
      pz      :     1.008644  p :     3.115068
      px      :     1.073183
      py      :     1.033241
      dz2     :     0.018623  d :     0.084515
      dxz     :     0.010031
      dyz     :     0.026001
      dx2y2   :     0.010012
      dxy     :     0.019849
 15 C s       :     2.867967  s :     2.867967
      pz      :     1.056147  p :     3.021360
      px      :     1.030351
      py      :     0.934863
      dz2     :     0.035873  d :     0.127998
      dxz     :     0.015867
      dyz     :     0.034670
      dx2y2   :     0.023256
      dxy     :     0.018333
 16 C s       :     2.868475  s :     2.868475
      pz      :     1.027245  p :     3.041181
      px      :     1.067982
      py      :     0.945954
      dz2     :     0.030131  d :     0.108547
      dxz     :     0.012230
      dyz     :     0.034286
      dx2y2   :     0.019148
      dxy     :     0.012751
 17 N s       :     3.045747  s :     3.045747
      pz      :     1.172552  p :     3.771932
      px      :     1.420573
      py      :     1.178807
      dz2     :     0.015757  d :     0.060932
      dxz     :     0.004238
      dyz     :     0.021285
      dx2y2   :     0.007772
      dxy     :     0.011880
 18 C s       :     2.846460  s :     2.846460
      pz      :     0.912613  p :     2.931573
      px      :     1.001022
      py      :     1.017937
      dz2     :     0.040096  d :     0.149254
      dxz     :     0.028479
      dyz     :     0.056327
      dx2y2   :     0.014589
      dxy     :     0.009763
 19 N s       :     3.112323  s :     3.112323
      pz      :     1.281611  p :     3.699263
      px      :     1.256971
      py      :     1.160681
      dz2     :     0.012355  d :     0.060783
      dxz     :     0.007792
      dyz     :     0.021440
      dx2y2   :     0.008527
      dxy     :     0.010670
 20 H s       :     0.883423  s :     0.883423
      pz      :     0.013788  p :     0.064708
      px      :     0.024247
      py      :     0.026672
 21 H s       :     0.883234  s :     0.883234
      pz      :     0.011889  p :     0.064579
      px      :     0.035963
      py      :     0.016727
 22 H s       :     0.884620  s :     0.884620
      pz      :     0.025927  p :     0.072262
      px      :     0.017044
      py      :     0.029291
 23 H s       :     0.873393  s :     0.873393
      pz      :     0.009146  p :     0.075871
      px      :     0.016095
      py      :     0.050630
 24 O s       :     3.465814  s :     3.465814
      pz      :     1.568891  p :     4.535898
      px      :     1.469479
      py      :     1.497528
      dz2     :     0.003559  d :     0.024133
      dxz     :     0.004318
      dyz     :     0.001554
      dx2y2   :     0.008080
      dxy     :     0.006623
 25 O s       :     3.459154  s :     3.459154
      pz      :     1.427947  p :     4.512000
      px      :     1.543252
      py      :     1.540801
      dz2     :     0.003453  d :     0.025090
      dxz     :     0.008903
      dyz     :     0.002702
      dx2y2   :     0.005231
      dxy     :     0.004801
 26 O s       :     3.464697  s :     3.464697
      pz      :     1.576390  p :     4.534617
      px      :     1.432736
      py      :     1.525491
      dz2     :     0.003603  d :     0.024090
      dxz     :     0.004126
      dyz     :     0.001309
      dx2y2   :     0.009441
      dxy     :     0.005611
 27 N s       :     3.078193  s :     3.078193
      pz      :     1.179162  p :     3.726099
      px      :     1.375978
      py      :     1.170960
      dz2     :     0.015404  d :     0.061652
      dxz     :     0.008227
      dyz     :     0.016317
      dx2y2   :     0.010003
      dxy     :     0.011700
 28 O s       :     3.558664  s :     3.558664
      pz      :     1.452048  p :     4.646466
      px      :     1.714114
      py      :     1.480305
      dz2     :     0.003669  d :     0.028059
      dxz     :     0.001342
      dyz     :     0.007328
      dx2y2   :     0.008713
      dxy     :     0.007007
 29 O s       :     3.559513  s :     3.559513
      pz      :     1.458373  p :     4.656889
      px      :     1.738001
      py      :     1.460515
      dz2     :     0.010645  d :     0.027869
      dxz     :     0.004502
      dyz     :     0.009921
      dx2y2   :     0.001598
      dxy     :     0.001203
 30 O s       :     3.558690  s :     3.558690
      pz      :     1.449234  p :     4.646424
      px      :     1.732724
      py      :     1.464466
      dz2     :     0.003629  d :     0.028082
      dxz     :     0.001138
      dyz     :     0.008798
      dx2y2   :     0.009058
      dxy     :     0.005459
 31 C s       :     2.844064  s :     2.844064
      pz      :     0.961707  p :     2.810227
      px      :     0.975711
      py      :     0.872809
      dz2     :     0.069655  d :     0.302494
      dxz     :     0.103574
      dyz     :     0.047887
      dx2y2   :     0.038705
      dxy     :     0.042673
 32 C s       :     2.849689  s :     2.849689
      pz      :     0.863150  p :     2.810167
      px      :     0.958481
      py      :     0.988536
      dz2     :     0.026223  d :     0.298544
      dxz     :     0.041581
      dyz     :     0.040485
      dx2y2   :     0.077895
      dxy     :     0.112361
 33 C s       :     2.850026  s :     2.850026
      pz      :     0.860651  p :     2.809721
      px      :     0.952180
      py      :     0.996889
      dz2     :     0.023291  d :     0.298136
      dxz     :     0.040799
      dyz     :     0.037917
      dx2y2   :     0.086597
      dxy     :     0.109532
 34 C s       :     2.858796  s :     2.858796
      pz      :     0.983677  p :     3.006657
      px      :     1.049012
      py      :     0.973968
      dz2     :     0.016942  d :     0.100880
      dxz     :     0.013253
      dyz     :     0.028614
      dx2y2   :     0.012089
      dxy     :     0.029981
 35 H s       :     0.868840  s :     0.868840
      pz      :     0.035075  p :     0.067971
      px      :     0.015308
      py      :     0.017588
 36 H s       :     0.888059  s :     0.888059
      pz      :     0.013267  p :     0.067741
      px      :     0.035037
      py      :     0.019437
 37 C s       :     2.860529  s :     2.860529
      pz      :     1.086345  p :     3.005425
      px      :     1.036155
      py      :     0.882925
      dz2     :     0.021319  d :     0.101008
      dxz     :     0.013116
      dyz     :     0.011721
      dx2y2   :     0.025689
      dxy     :     0.029163
 38 H s       :     0.870775  s :     0.870775
      pz      :     0.043137  p :     0.068111
      px      :     0.013890
      py      :     0.011084
 39 H s       :     0.888670  s :     0.888670
      pz      :     0.020023  p :     0.067579
      px      :     0.037880
      py      :     0.009676
 40 C s       :     2.858746  s :     2.858746
      pz      :     0.876890  p :     3.012694
      px      :     1.073348
      py      :     1.062456
      dz2     :     0.027737  d :     0.097465
      dxz     :     0.020942
      dyz     :     0.020390
      dx2y2   :     0.010692
      dxy     :     0.017703
 41 H s       :     0.898071  s :     0.898071
      pz      :     0.015609  p :     0.065053
      px      :     0.025376
      py      :     0.024067
 42 H s       :     0.896260  s :     0.896260
      pz      :     0.025415  p :     0.064067
      px      :     0.012275
      py      :     0.026377
 43 H s       :     0.899315  s :     0.899315
      pz      :     0.011918  p :     0.064535
      px      :     0.034471
      py      :     0.018146
 44 H s       :     0.903911  s :     0.903911
      pz      :     0.013909  p :     0.063813
      px      :     0.013848
      py      :     0.036056
 45 H s       :     0.903721  s :     0.903721
      pz      :     0.014382  p :     0.063794
      px      :     0.027364
      py      :     0.022048
 46 H s       :     0.899669  s :     0.899669
      pz      :     0.018974  p :     0.063822
      px      :     0.030843
      py      :     0.014005
 47 H s       :     0.876550  s :     0.876550
      pz      :     0.009199  p :     0.068458
      px      :     0.026100
      py      :     0.033159
 48 H s       :     0.867895  s :     0.867895
      pz      :     0.020995  p :     0.068541
      px      :     0.020657
      py      :     0.026889
 49 H s       :     0.754124  s :     0.754124
      pz      :     0.067240  p :     0.120508
      px      :     0.030694
      py      :     0.022574


                      *****************************
                      * MAYER POPULATION ANALYSIS *
                      *****************************

  NA   - Mulliken gross atomic population
  ZA   - Total nuclear charge
  QA   - Mulliken gross atomic charge
  VA   - Mayer's total valence
  BVA  - Mayer's bonded valence
  FA   - Mayer's free valence

  ATOM       NA         ZA         QA         VA         BVA        FA
  0 Co    27.1835    27.0000    -0.1835     4.9675     4.9675    -0.0000
  1 C      6.0725     6.0000    -0.0725     4.0293     4.0293     0.0000
  2 C      5.9345     6.0000     0.0655     4.0159     4.0159    -0.0000
  3 C      6.0679     6.0000    -0.0679     3.9707     3.9707     0.0000
  4 C      5.9810     6.0000     0.0190     3.8172     3.8172    -0.0000
  5 N      7.0319     7.0000    -0.0319     3.5104     3.5104     0.0000
  6 C      5.8455     6.0000     0.1545     3.8752     3.8752    -0.0000
  7 N      7.1598     7.0000    -0.1598     3.4442     3.4442     0.0000
  8 H      0.9600     1.0000     0.0400     0.9867     0.9867    -0.0000
  9 H      0.9528     1.0000     0.0472     0.9811     0.9811     0.0000
 10 H      0.8072     1.0000     0.1928     0.9712     0.9712     0.0000
 11 H      0.9543     1.0000     0.0457     1.0259     1.0259     0.0000
 12 H      0.9114     1.0000     0.0886     1.0177     1.0177    -0.0000
 13 C      6.1181     6.0000    -0.1181     4.0606     4.0606     0.0000
 14 C      5.9183     6.0000     0.0817     3.9966     3.9966     0.0000
 15 C      6.0598     6.0000    -0.0598     3.9658     3.9658    -0.0000
 16 C      6.0186     6.0000    -0.0186     3.8583     3.8583    -0.0000
 17 N      7.0445     7.0000    -0.0445     3.5262     3.5262     0.0000
 18 C      5.8673     6.0000     0.1327     3.9133     3.9133     0.0000
 19 N      7.1561     7.0000    -0.1561     3.4059     3.4059    -0.0000
 20 H      0.9473     1.0000     0.0527     0.9833     0.9833     0.0000
 21 H      0.9364     1.0000     0.0636     0.9778     0.9778     0.0000
 22 H      0.9531     1.0000     0.0469     1.0158     1.0158     0.0000
 23 H      0.9089     1.0000     0.0911     1.0132     1.0132     0.0000
 24 O      8.2591     8.0000    -0.2591     2.2873     2.2873    -0.0000
 25 O      8.2244     8.0000    -0.2244     2.3496     2.3496    -0.0000
 26 O      8.2531     8.0000    -0.2531     2.2951     2.2951    -0.0000
 27 N      7.3265     7.0000    -0.3265     3.3949     3.3949     0.0000
 28 O      8.2621     8.0000    -0.2621     2.2689     2.2689     0.0000
 29 O      8.2699     8.0000    -0.2699     2.2613     2.2613     0.0000
 30 O      8.2603     8.0000    -0.2603     2.2712     2.2712     0.0000
 31 C      5.8547     6.0000     0.1453     4.3561     4.3561    -0.0000
 32 C      5.8897     6.0000     0.1103     4.3786     4.3786     0.0000
 33 C      5.8892     6.0000     0.1108     4.3837     4.3837     0.0000
 34 C      5.8778     6.0000     0.1222     3.7364     3.7364     0.0000
 35 H      0.9151     1.0000     0.0849     1.0075     1.0075    -0.0000
 36 H      0.9371     1.0000     0.0629     1.0053     1.0053    -0.0000
 37 C      5.8807     6.0000     0.1193     3.7258     3.7258    -0.0000
 38 H      0.9184     1.0000     0.0816     1.0108     1.0108     0.0000
 39 H      0.9365     1.0000     0.0635     1.0038     1.0038     0.0000
 40 C      5.9082     6.0000     0.0918     3.7436     3.7436    -0.0000
 41 H      0.9407     1.0000     0.0593     0.9832     0.9832     0.0000
 42 H      0.9541     1.0000     0.0459     0.9850     0.9850     0.0000
 43 H      0.9457     1.0000     0.0543     0.9858     0.9858    -0.0000
 44 H      0.9575     1.0000     0.0425     0.9851     0.9851    -0.0000
 45 H      0.9564     1.0000     0.0436     0.9892     0.9892    -0.0000
 46 H      0.9522     1.0000     0.0478     0.9836     0.9836     0.0000
 47 H      0.9218     1.0000     0.0782     1.0048     1.0048    -0.0000
 48 H      0.9092     1.0000     0.0908     0.9976     0.9976    -0.0000
 49 H      0.8086     1.0000     0.1914     0.9809     0.9809    -0.0000

  Mayer bond orders larger than 0.100000
B(  0-Co,  7-N ) :   0.6045 B(  0-Co, 19-N ) :   0.6097 B(  0-Co, 24-O ) :   0.7502 
B(  0-Co, 25-O ) :   0.8633 B(  0-Co, 26-O ) :   0.7663 B(  0-Co, 27-N ) :   0.6145 
B(  1-C ,  2-C ) :   1.1155 B(  1-C , 44-H ) :   0.9646 B(  1-C , 45-H ) :   0.9684 
B(  1-C , 46-H ) :   0.9603 B(  2-C ,  3-C ) :   1.0772 B(  2-C ,  8-H ) :   0.9080 
B(  2-C ,  9-H ) :   0.9136 B(  3-C ,  4-C ) :   1.4587 B(  3-C ,  5-N ) :   1.2384 
B(  4-C ,  7-N ) :   1.2495 B(  4-C , 11-H ) :   0.9776 B(  5-N ,  6-C ) :   1.2742 
B(  5-N , 10-H ) :   0.9071 B(  6-C ,  7-N ) :   1.4254 B(  6-C , 12-H ) :   0.9355 
B( 13-C , 14-C ) :   1.1140 B( 13-C , 41-H ) :   0.9578 B( 13-C , 42-H ) :   0.9528 
B( 13-C , 43-H ) :   0.9694 B( 14-C , 15-C ) :   1.0572 B( 14-C , 20-H ) :   0.9187 
B( 14-C , 21-H ) :   0.9104 B( 15-C , 16-C ) :   1.4794 B( 15-C , 17-N ) :   1.2306 
B( 16-C , 19-N ) :   1.2373 B( 16-C , 22-H ) :   0.9830 B( 17-N , 18-C ) :   1.2914 
B( 17-N , 49-H ) :   0.9009 B( 18-C , 19-N ) :   1.4072 B( 18-C , 23-H ) :   0.9436 
B( 24-O , 30-O ) :   0.1115 B( 24-O , 32-C ) :   1.2915 B( 25-O , 29-O ) :   0.1111 
B( 25-O , 31-C ) :   1.2916 B( 26-O , 28-O ) :   0.1118 B( 26-O , 33-C ) :   1.2984 
B( 27-N , 34-C ) :   0.8974 B( 27-N , 37-C ) :   0.8954 B( 27-N , 40-C ) :   0.8723 
B( 28-O , 33-C ) :   2.0306 B( 29-O , 31-C ) :   2.0228 B( 30-O , 32-C ) :   2.0360 
B( 31-C , 40-C ) :   0.9320 B( 32-C , 34-C ) :   0.9247 B( 33-C , 37-C ) :   0.9243 
B( 34-C , 35-H ) :   0.9101 B( 34-C , 36-H ) :   0.9267 B( 37-C , 38-H ) :   0.9071 
B( 37-C , 39-H ) :   0.9283 B( 40-C , 47-H ) :   0.9225 B( 40-C , 48-H ) :   0.9191 


-------
TIMINGS
-------

Total SCF time: 0 days 0 hours 2 min 58 sec 

Total time                  ....     178.733 sec
Sum of individual times     ....     177.424 sec  ( 99.3%)

Fock matrix formation       ....     169.929 sec  ( 95.1%)
  Split-RI-J                ....      43.834 sec  ( 25.8% of F)
  XC integration            ....      57.190 sec  ( 33.7% of F)
    Basis function eval.    ....      24.675 sec  ( 43.1% of XC)
    Density eval.           ....      19.389 sec  ( 33.9% of XC)
    XC-Functional eval.     ....       3.976 sec  (  7.0% of XC)
    XC-Potential eval.      ....       6.835 sec  ( 12.0% of XC)
Diagonalization             ....       0.977 sec  (  0.5%)
Density matrix formation    ....       0.100 sec  (  0.1%)
Population analysis         ....       0.050 sec  (  0.0%)
Initial guess               ....       0.078 sec  (  0.0%)
Orbital Transformation      ....       0.000 sec  (  0.0%)
Orbital Orthonormalization  ....       0.063 sec  (  0.0%)
DIIS solution               ....       0.563 sec  (  0.3%)
Grid generation             ....       5.728 sec  (  3.2%)

Maximum memory used throughout the entire SCF-calculation: 288.5 MB


-------------------------------------------------------------------------------
                          DFT DISPERSION CORRECTION                            
                                                                               
                              DFTD3 V3.1  Rev 1                                
                          USING Becke-Johnson damping                          
-------------------------------------------------------------------------------
The BP86 functional is recognized
Active option DFTDOPT                   ...         4   

molecular C6(AA) [au] = 26626.364245 


            DFT-D V3
 parameters
 s6 scaling factor         :     1.0000 
 a1 scaling factor         :     0.3946 
 s8 scaling factor         :     3.2822 
 a2 scaling factor         :     4.8516 
 ad hoc parameters k1-k3   :    16.0000     1.3333    -4.0000 

 Edisp/kcal,au: -71.596845811660  -0.114096824245 
 E6   /kcal   : -26.971373601 
 E8   /kcal   : -44.625472211 
 % E8         :  62.328824273 

-------------------------   ----------------
Dispersion correction           -0.114096824
-------------------------   ----------------


-------------------------   --------------------
FINAL SINGLE POINT ENERGY     -2730.499028316048
-------------------------   --------------------

                                *** OPTIMIZATION RUN DONE ***

                            ***************************************
                            *     ORCA property calculations      *
                            ***************************************

                                    ---------------------
                                    Active property flags
                                    ---------------------
   (+) Dipole Moment


------------------------------------------------------------------------------
                       ORCA ELECTRIC PROPERTIES CALCULATION
------------------------------------------------------------------------------

Dipole Moment Calculation                       ... on
Quadrupole Moment Calculation                   ... off
Polarizability Calculation                      ... off
GBWName                                         ... opt.gbw
Electron density file                           ... opt.scfp
The origin for moment calculation is the CENTER OF MASS  = (-14.376608, -0.364437 -21.158631)

-------------
DIPOLE MOMENT
-------------
                                X             Y             Z
Electronic contribution:     -9.08656       8.87883     -30.17675
Nuclear contribution   :     11.14473     -12.04833      37.21636
                        -----------------------------------------
Total Dipole Moment    :      2.05818      -3.16949       7.03961
                        -----------------------------------------
Magnitude (a.u.)       :      7.98986
Magnitude (Debye)      :     20.30861



--------------------
Rotational spectrum 
--------------------
 
Rotational constants in cm-1:     0.007461     0.004885     0.004191 
Rotational constants in MHz :   223.670747   146.441312   125.654622 

 Dipole components along the rotational axes: 
x,y,z [a.u.] :     7.570337     2.541341    -0.263534 
x,y,z [Debye]:    19.242267     6.459576    -0.669851 

 

Timings for individual modules:

Sum of individual times         ...     9391.968 sec (= 156.533 min)
GTO integral calculation        ...       28.443 sec (=   0.474 min)   0.3 %
SCF iterations                  ...     7312.699 sec (= 121.878 min)  77.9 %
SCF Gradient evaluation         ...     2033.249 sec (=  33.887 min)  21.6 %
Geometry relaxation             ...       17.576 sec (=   0.293 min)   0.2 %
                             ****ORCA TERMINATED NORMALLY****
TOTAL RUN TIME: 0 days 2 hours 36 minutes 44 seconds 296 msec
