50
	Energy:     297.6170211
Co        -6.72401        1.73101      -11.87300
C         -1.92901        1.78801       -8.02600
C         -3.22134        2.15765       -9.05464
C         -3.75843        1.11594      -10.15336
C         -2.98683       -0.02718      -10.24953
N         -4.86339        0.98353      -11.08962
C         -4.61768       -0.25933      -11.60650
N         -3.52033       -0.85587      -11.13391
H         -2.94639        3.07815       -9.61297
H         -4.07791        2.40923       -8.39804
H         -2.09044       -0.26543       -9.69408
H         -5.22431       -0.78617      -12.31385
H         -3.16255       -1.80207      -11.39302
C         -7.11201       -0.89399       -5.84200
C         -6.98652       -1.51047       -7.27998
C         -7.44035       -0.81132       -8.60344
C         -6.95090        0.33586       -9.23551
N         -8.31013       -1.37175       -9.47091
C         -8.30157       -0.62196      -10.60270
N         -7.46763        0.44020      -10.50884
H         -7.52812       -2.47932       -7.23403
H         -5.91048       -1.75551       -7.41504
H         -8.82544       -2.27015       -9.33783
H         -6.18451        0.98086       -8.83229
H         -8.83718       -0.91542      -11.48870
O         -6.78164        3.07558      -10.66534
O         -5.85719        2.81384      -13.02539
O         -6.76245        0.49633      -13.19871
N         -8.36422        2.38571      -12.58807
O         -8.03595       -0.62086      -14.64992
O         -5.95062        4.42763      -14.54585
O         -8.17988        4.52623       -9.68277
C         -6.53217        3.55754      -13.69856
C         -7.92443        3.51726      -10.53541
C         -7.85415        0.34433      -13.72933
C         -9.02685        2.91309      -11.39103
H         -9.48656        2.09016      -10.80650
H         -9.83023        3.63716      -11.65234
C         -8.98275        1.24387      -13.29482
H         -9.57078        1.57653      -14.17837
H         -9.69575        0.67837      -12.66944
C         -8.00645        3.48162      -13.55219
H         -8.36795        4.48005      -13.22247
H         -8.41202        3.31345      -14.57395
H         -2.20616        0.92521       -7.38530
H         -1.71163        2.66345       -7.37960
H         -1.01996        1.54283       -8.61299
H         -6.51846        0.04230       -5.78433
H         -6.74090       -1.61149       -5.07997
H         -8.17741       -0.66023       -5.63624
