
                                        *****************
                                        * O   R   C   A *
                                        *****************

                                            #,                                       
                                            ###                                      
                                            ####                                     
                                            #####                                    
                                            ######                                   
                                           ########,                                 
                                     ,,################,,,,,                         
                               ,,#################################,,                 
                          ,,##########################################,,             
                       ,#########################################, ''#####,          
                    ,#############################################,,   '####,        
                  ,##################################################,,,,####,       
                ,###########''''           ''''###############################       
              ,#####''   ,,,,##########,,,,          '''####'''          '####       
            ,##' ,,,,###########################,,,                        '##       
           ' ,,###''''                  '''############,,,                           
         ,,##''                                '''############,,,,        ,,,,,,###''
      ,#''                                            '''#######################'''  
     '                                                          ''''####''''         
             ,#######,   #######,   ,#######,      ##                                
            ,#'     '#,  ##    ##  ,#'     '#,    #''#        ######   ,####,        
            ##       ##  ##   ,#'  ##            #'  '#       #        #'  '#        
            ##       ##  #######   ##           ,######,      #####,   #    #        
            '#,     ,#'  ##    ##  '#,     ,#' ,#      #,         ##   #,  ,#        
             '#######'   ##     ##  '#######'  #'      '#     #####' # '####'        



                  #######################################################
                  #                        -***-                        #
                  #          Department of theory and spectroscopy      #
                  #    Directorship and core code : Frank Neese         #
                  #        Max Planck Institute fuer Kohlenforschung    #
                  #                Kaiser Wilhelm Platz 1               #
                  #                 D-45470 Muelheim/Ruhr               #
                  #                      Germany                        #
                  #                                                     #
                  #                  All rights reserved                #
                  #                        -***-                        #
                  #######################################################


                         Program Version 5.0.0 -  RELEASE  -
                                (SVN: $Rev: 19529$)
                ($Date: 2021-06-28 11:36:33 +0200 (Mo, 28 Jun 2021) $)


 With contributions from (in alphabetic order):
   Daniel Aravena         : Magnetic Suceptibility
   Michael Atanasov       : Ab Initio Ligand Field Theory (pilot matlab implementation)
   Alexander A. Auer      : GIAO ZORA, VPT2 properties, NMR spectrum
   Ute Becker             : Parallelization
   Giovanni Bistoni       : ED, misc. LED, open-shell LED, HFLD
   Martin Brehm           : Molecular dynamics
   Dmytro Bykov           : SCF Hessian
   Vijay G. Chilkuri      : MRCI spin determinant printing, contributions to CSF-ICE
   Dipayan Datta          : RHF DLPNO-CCSD density
   Achintya Kumar Dutta   : EOM-CC, STEOM-CC
   Dmitry Ganyushin       : Spin-Orbit,Spin-Spin,Magnetic field MRCI
   Miquel Garcia          : C-PCM Hessian, Gaussian charge scheme
   Yang Guo               : DLPNO-NEVPT2, F12-NEVPT2, CIM, IAO-localization
   Andreas Hansen         : Spin unrestricted coupled pair/coupled cluster methods
   Benjamin Helmich-Paris : MC-RPA, TRAH-SCF, COSX integrals
   Lee Huntington         : MR-EOM, pCC
   Robert Izsak           : Overlap fitted RIJCOSX, COSX-SCS-MP3, EOM
   Marcus Kettner         : VPT2
   Christian Kollmar      : KDIIS, OOCD, Brueckner-CCSD(T), CCSD density, CASPT2, CASPT2-K
   Simone Kossmann        : Meta GGA functionals, TD-DFT gradient, OOMP2, MP2 Hessian
   Martin Krupicka        : Initial AUTO-CI
   Lucas Lang             : DCDCAS
   Marvin Lechner         : AUTO-CI (C++ implementation), FIC-MRCC
   Dagmar Lenk            : GEPOL surface, SMD
   Dimitrios Liakos       : Extrapolation schemes; Compound Job, initial MDCI parallelization
   Dimitrios Manganas     : Further ROCIS development; embedding schemes
   Dimitrios Pantazis     : SARC Basis sets
   Anastasios Papadopoulos: AUTO-CI, single reference methods and gradients
   Taras Petrenko         : DFT Hessian,TD-DFT gradient, ASA, ECA, R-Raman, ABS, FL, XAS/XES, NRVS
   Peter Pinski           : DLPNO-MP2, DLPNO-MP2 Gradient
   Christoph Reimann      : Effective Core Potentials
   Marius Retegan         : Local ZFS, SOC
   Christoph Riplinger    : Optimizer, TS searches, QM/MM, DLPNO-CCSD(T), (RO)-DLPNO pert. Triples
   Tobias Risthaus        : Range-separated hybrids, TD-DFT gradient, RPA, STAB
   Michael Roemelt        : Original ROCIS implementation
   Masaaki Saitow         : Open-shell DLPNO-CCSD energy and density
   Barbara Sandhoefer     : DKH picture change effects
   Avijit Sen             : IP-ROCIS
   Kantharuban Sivalingam : CASSCF convergence, NEVPT2, FIC-MRCI
   Bernardo de Souza      : ESD, SOC TD-DFT
   Georgi Stoychev        : AutoAux, RI-MP2 NMR
   Willem Van den Heuvel  : Paramagnetic NMR
   Boris Wezisla          : Elementary symmetry handling
   Frank Wennmohs         : Technical directorship


 We gratefully acknowledge several colleagues who have allowed us to
 interface, adapt or use parts of their codes:
   Stefan Grimme, W. Hujo, H. Kruse, P. Pracht,  : VdW corrections, initial TS optimization,
                  C. Bannwarth, S. Ehlert          DFT functionals, gCP, sTDA/sTD-DF
   Ed Valeev, F. Pavosevic, A. Kumar             : LibInt (2-el integral package), F12 methods
   Garnet Chan, S. Sharma, J. Yang, R. Olivares  : DMRG
   Ulf Ekstrom                                   : XCFun DFT Library
   Mihaly Kallay                                 : mrcc  (arbitrary order and MRCC methods)
   Jiri Pittner, Ondrej Demel                    : Mk-CCSD
   Frank Weinhold                                : gennbo (NPA and NBO analysis)
   Christopher J. Cramer and Donald G. Truhlar   : smd solvation model
   Lars Goerigk                                  : TD-DFT with DH, B97 family of functionals
   V. Asgeirsson, H. Jonsson                     : NEB implementation
   FAccTs GmbH                                   : IRC, NEB, NEB-TS, DLPNO-Multilevel, CI-OPT
                                                   MM, QMMM, 2- and 3-layer-ONIOM, Crystal-QMMM,
                                                   LR-CPCM, SF, NACMEs, symmetry and pop. for TD-DFT,
                                                   nearIR, NL-DFT gradient (VV10), updates on ESD,
                                                   ML-optimized integration grids
   S Lehtola, MJT Oliveira, MAL Marques          : LibXC Library
   Liviu Ungur et al                             : ANISO software


 Your calculation uses the libint2 library for the computation of 2-el integrals
 For citations please refer to: http://libint.valeyev.net

 Your ORCA version has been built with support for libXC version: 5.1.0
 For citations please refer to: https://tddft.org/programs/libxc/

 This ORCA versions uses:
   CBLAS   interface :  Fast vector & matrix operations
   LAPACKE interface :  Fast linear algebra routines
   SCALAPACK package :  Parallel linear algebra routines
   Shared memory     :  Shared parallel matrices
   BLAS/LAPACK       :  OpenBLAS 0.3.15  USE64BITINT DYNAMIC_ARCH NO_AFFINITY SkylakeX SINGLE_THREADED
        Core in use  :  SkylakeX
   Copyright (c) 2011-2014, The OpenBLAS Project




***************************************
The coordinates will be read from file: ../32Ne-28Nd-nta-co-min.xyz
***************************************


Your calculation utilizes the atom-pairwise dispersion correction
with the Becke-Johnson damping scheme (D3BJ)
Cite in your paper:
S.Grimme, S.Ehrlich, L.Goerigk, J Comput Chem, (2011), 32, 1456–1465 
S.Grimme, J.Antony, S.Ehrlich and H.Krieg, J.Chem.Phys., 132, (2010), 154104 
   

Your calculation utilizes the SMD solvation module
Please cite in your paper:
A.V. Marenich, C.J. Cramer, D.G. Truhlar J. Phys. Chem. B, 113, (2009), 6378 

================================================================================

----- Orbital basis set information -----
Your calculation utilizes the basis: def2-SVP
   F. Weigend and R. Ahlrichs, Phys. Chem. Chem. Phys. 7, 3297 (2005).

The basis set includes element-specific modifications.

Your calculation utilizes the basis: def2-TZVP
   F. Weigend and R. Ahlrichs, Phys. Chem. Chem. Phys. 7, 3297 (2005).

----- AuxJ basis set information -----
Your calculation utilizes the auxiliary basis: def2/J
   F. Weigend, Phys. Chem. Chem. Phys. 8, 1057 (2006).

================================================================================
                                        WARNINGS
                       Please study these warnings very carefully!
================================================================================


WARNING: Geometry Optimization
  ===> : Switching off AutoStart
         For restart on a previous wavefunction, please use MOREAD

INFO   : the flag for use of the SHARK integral package has been found!

================================================================================
                                       INPUT FILE
================================================================================
NAME = opt.inp
|  1> ! RI BP86 def2-SVP def2/J D3BJ TIGHTSCF Opt
|  2> ! CPCM
|  3> # memory
|  4> %maxcore 32000
|  5> # smd solvation model
|  6> %cpcm
|  7> smd true
|  8> SMDsolvent "DMF"
|  9> end
| 10> # triple zeta basis on Co
| 11> %basis newgto Co "def2-TZVP" end end
| 12> # constrain CA and CB atoms of diHis (determined by backbone helix)
| 13> # and constrain Co in PCS defined position
| 14> %geom
| 15> Constraints
| 16> {C 0 C}
| 17> {C 1 C}
| 18> {C 2 C}
| 19> {C 13 C}
| 20> {C 14 C}
| 21> end
| 22> end
| 23>  * xyzfile 0 1 ../32Ne-28Nd-nta-co-min.xyz
| 24> 
| 25>                          ****END OF INPUT****
================================================================================

                       *****************************
                       * Geometry Optimization Run *
                       *****************************

Geometry optimization settings:
Update method            Update   .... BFGS
Choice of coordinates    CoordSys .... Z-matrix Internals
Initial Hessian          InHess   .... Almoef's Model

Convergence Tolerances:
Energy Change            TolE     ....  5.0000e-06 Eh
Max. Gradient            TolMAXG  ....  3.0000e-04 Eh/bohr
RMS Gradient             TolRMSG  ....  1.0000e-04 Eh/bohr
Max. Displacement        TolMAXD  ....  4.0000e-03 bohr
RMS Displacement         TolRMSD  ....  2.0000e-03 bohr
Strict Convergence                ....  False
------------------------------------------------------------------------------
                        ORCA OPTIMIZATION COORDINATE SETUP
------------------------------------------------------------------------------

The optimization will be done in new redundant internal coordinates
Making redundant internal coordinates   ...  (new redundants) done
Evaluating the initial hessian          ...  (Almloef) done
Evaluating the coordinates              ...  done
Calculating the B-matrix                .... done
Calculating the G-matrix                .... done
Diagonalizing the G-matrix              .... done
Imposing constraints:
 Iter   0:  RMS(Cart)=    0.0000000000 RMS(Int)=    0.0000000000
CONVERGED
Will constrain atom 0 coordinate 1 
Will constrain atom 0 coordinate 2 
Will constrain atom 0 coordinate 3 
Will constrain atom 1 coordinate 1 
Will constrain atom 1 coordinate 2 
Will constrain atom 1 coordinate 3 
Will constrain atom 2 coordinate 1 
Will constrain atom 2 coordinate 2 
Will constrain atom 2 coordinate 3 
Will constrain atom 13 coordinate 1 
Will constrain atom 13 coordinate 2 
Will constrain atom 13 coordinate 3 
Will constrain atom 14 coordinate 1 
Will constrain atom 14 coordinate 2 
Will constrain atom 14 coordinate 3 
Small eigenvalue found = 8.246e-03
Small eigenvalue found = 1.426e-02
Small eigenvalue found = 2.472e-02
Small eigenvalue found = 2.699e-02
The first mode is                       ....  566
The number of degrees of freedom        ....  150
Storing new coordinates                 .... done

    -----------------------------------------------------------------
                    Redundant Internal Coordinates


    -----------------------------------------------------------------
         Definition                    Initial Value    Approx d2E/dq
    -----------------------------------------------------------------
      1. B(C   2,C   1)                  1.5300         0.373561   
      2. B(C   3,C   2)                  1.8314         0.123448   
      3. B(C   4,C   3)                  1.3919         0.620467   
      4. B(N   5,Co  0)                  2.3980         0.139554   
      5. B(N   5,C   3)                  1.5818         0.276610   
      6. B(C   6,N   5)                  1.3687         0.605054   
      7. B(N   7,C   4)                  1.3115         0.746756   
      8. B(N   7,C   6)                  1.3214         0.719967   
      9. B(H   8,C   2)                  1.1122         0.331933   
     10. B(H   9,C   2)                  1.1104         0.334149   
     11. B(H  10,C   4)                  1.0843         0.367779   
     12. B(H  11,C   6)                  1.0662         0.392963   
     13. B(H  12,N   7)                  1.0444         0.381389   
     14. B(C  14,C  13)                  1.5295         0.374301   
     15. B(C  15,C  14)                  1.5593         0.335513   
     16. B(C  16,C  15)                  1.4036         0.594398   
     17. B(N  17,C  15)                  1.3468         0.655931   
     18. B(C  18,N  17)                  1.3532         0.640485   
     19. B(N  19,Co  0)                  2.0331         0.533207   
     20. B(N  19,C  16)                  1.3776         0.585706   
     21. B(N  19,C  18)                  1.3566         0.632569   
     22. B(H  20,C  14)                  1.1115         0.332774   
     23. B(H  21,C  14)                  1.1108         0.333552   
     24. B(H  22,N  17)                  1.0442         0.381645   
     25. B(H  23,C  16)                  1.0816         0.371335   
     26. B(H  24,C  18)                  1.0737         0.382268   
     27. B(O  25,Co  0)                  1.8003         1.254243   
     28. B(O  26,Co  0)                  1.8055         1.230732   
     29. B(O  27,Co  0)                  1.8117         1.202733   
     30. B(N  28,Co  0)                  1.8985         0.874270   
     31. B(C  32,Co  0)                  2.5874         0.077701   
     32. B(C  32,O  26)                  1.2119         1.076436   
     33. B(C  32,O  30)                  1.3461         0.657492   
     34. B(C  33,Co  0)                  2.5185         0.100111   
     35. B(C  33,O  25)                  1.2313         1.002591   
     36. B(C  33,O  31)                  1.3458         0.658310   
     37. B(C  34,Co  0)                  2.5690         0.083157   
     38. B(C  34,O  27)                  1.2274         1.017034   
     39. B(C  34,O  29)                  1.3459         0.658049   
     40. B(C  35,Co  0)                  2.6233         0.068118   
     41. B(C  35,N  28)                  1.4772         0.406153   
     42. B(C  35,C  33)                  1.5276         0.376909   
     43. B(H  36,C  35)                  1.1101         0.334414   
     44. B(H  37,C  35)                  1.1122         0.331865   
     45. B(C  38,Co  0)                  2.7096         0.049605   
     46. B(C  38,N  28)                  1.4766         0.407106   
     47. B(C  38,C  34)                  1.5136         0.396713   
     48. B(H  39,C  38)                  1.1106         0.333822   
     49. B(H  40,C  38)                  1.1061         0.339437   
     50. B(C  41,Co  0)                  2.7384         0.044620   
     51. B(C  41,N  28)                  1.4964         0.378484   
     52. B(C  41,C  32)                  1.4826         0.444599   
     53. B(H  42,C  41)                  1.1131         0.330810   
     54. B(H  43,C  41)                  1.1109         0.333472   
     55. B(H  44,C  13)                  1.1102         0.334385   
     56. B(H  45,C  13)                  1.1107         0.333713   
     57. B(H  46,C  13)                  1.1103         0.334174   
     58. B(H  47,C   1)                  1.1104         0.334110   
     59. B(H  47,H  44)                  4.7942         0.000000   
     60. B(H  48,C   1)                  1.1102         0.334319   
     61. B(H  49,C   1)                  1.1100         0.334637   
     62. A(C  38,Co  0,C  41)           53.7227         0.232244   
     63. A(N   5,Co  0,O  25)           89.9128         0.469717   
     64. A(O  27,Co  0,C  35)          115.5285         0.411493   
     65. A(N   5,Co  0,N  19)           82.6180         0.402705   
     66. A(O  25,Co  0,O  26)           93.4618         0.712141   
     67. A(N  28,Co  0,C  38)           31.5684         0.368249   
     68. A(O  26,Co  0,O  27)           89.7074         0.706254   
     69. A(N   5,Co  0,C  41)          148.9763         0.268975   
     70. A(N  19,Co  0,C  38)           84.4988         0.338681   
     71. A(N  19,Co  0,O  25)           87.2492         0.604662   
     72. A(O  25,Co  0,C  34)          151.4049         0.429605   
     73. A(O  26,Co  0,C  34)           95.2014         0.428149   
     74. A(O  27,Co  0,C  32)           91.2580         0.421244   
     75. A(O  25,Co  0,C  38)          118.3663         0.392017   
     76. A(N  19,Co  0,C  33)           82.0174         0.381690   
     77. A(O  25,Co  0,C  35)           61.6537         0.414568   
     78. A(N  28,Co  0,C  35)           33.5249         0.389031   
     79. A(O  26,Co  0,C  41)           56.9006         0.383575   
     80. A(C  32,Co  0,C  33)           87.3199         0.279381   
     81. A(O  27,Co  0,N  28)           88.0581         0.660280   
     82. A(N  19,Co  0,O  26)          174.9750         0.602458   
     83. A(C  34,Co  0,C  35)           89.7539         0.266193   
     84. A(O  26,Co  0,N  28)           88.0896         0.663263   
     85. A(N   5,Co  0,O  27)           91.9170         0.466120   
     86. A(O  25,Co  0,N  28)           90.0841         0.665728   
     87. A(N  28,Co  0,C  41)           31.5178         0.361634   
     88. A(O  26,Co  0,C  32)           24.7359         0.422979   
     89. A(C  32,Co  0,C  35)           83.3795         0.263492   
     90. A(C  32,Co  0,C  41)           32.1678         0.247558   
     91. A(N  28,Co  0,C  32)           63.4805         0.398104   
     92. A(O  27,Co  0,C  38)           59.0530         0.389155   
     93. A(C  33,Co  0,C  38)           91.2691         0.260993   
     94. A(N   5,Co  0,C  38)          148.2209         0.273341   
     95. A(O  26,Co  0,C  38)           99.4988         0.390722   
     96. A(C  33,Co  0,C  35)           34.4898         0.273793   
     97. A(O  26,Co  0,C  35)          106.2797         0.413177   
     98. A(N   5,Co  0,O  26)           92.4054         0.468090   
     99. A(O  26,Co  0,C  33)          100.8451         0.442696   
    100. A(N  19,Co  0,N  28)           96.8868         0.564215   
    101. A(N  19,Co  0,C  41)          128.1165         0.332767   
    102. A(C  35,Co  0,C  41)           54.3117         0.242904   
    103. A(C  32,Co  0,C  34)           85.8969         0.271551   
    104. A(O  27,Co  0,C  33)          149.9299         0.440858   
    105. A(O  25,Co  0,C  33)           27.1655         0.444214   
    106. A(N   5,Co  0,C  33)          115.3950         0.305095   
    107. A(O  27,Co  0,C  41)           92.2752         0.382044   
    108. A(C  33,Co  0,C  41)           71.0957         0.256919   
    109. A(N  19,Co  0,C  34)           86.4743         0.369653   
    110. A(O  25,Co  0,C  32)           90.8036         0.424413   
    111. A(N   5,Co  0,C  34)          116.8307         0.296208   
    112. A(N   5,Co  0,C  32)          117.0152         0.293050   
    113. A(O  25,Co  0,C  41)           87.8199         0.384839   
    114. A(N  19,Co  0,C  32)          160.2837         0.365375   
    115. A(C  33,Co  0,C  34)          124.2397         0.282328   
    116. A(O  27,Co  0,C  34)           25.8726         0.426387   
    117. A(C  35,Co  0,C  38)           56.8357         0.246639   
    118. A(C  32,Co  0,C  38)           79.1843         0.251405   
    119. A(N  28,Co  0,C  34)           63.0829         0.402888   
    120. A(N  19,Co  0,C  35)           78.4325         0.357263   
    121. A(N   5,Co  0,C  35)          146.2187         0.287060   
    122. A(N  28,Co  0,C  33)           64.5190         0.416352   
    123. A(N  19,Co  0,O  27)           89.7644         0.599791   
    124. A(C  34,Co  0,C  38)           33.1910         0.253919   
    125. A(C  34,Co  0,C  41)           74.4233         0.250013   
    126. A(C   2,C   1,H  48)          109.7644         0.320393   
    127. A(H  47,C   1,H  48)          109.1252         0.284137   
    128. A(C   2,C   1,H  47)          109.8993         0.320361   
    129. A(H  48,C   1,H  49)          108.9750         0.284207   
    130. A(C   2,C   1,H  49)          109.9380         0.320443   
    131. A(H  47,C   1,H  49)          109.1166         0.284179   
    132. A(C   1,C   2,H   8)          112.0431         0.320019   
    133. A(C   3,C   2,H   8)          112.6538         0.268807   
    134. A(C   1,C   2,H   9)          107.6717         0.320367   
    135. A(C   3,C   2,H   9)          107.6060         0.269078   
    136. A(H   8,C   2,H   9)          107.3879         0.283826   
    137. A(C   1,C   2,C   3)          109.2444         0.302530   
    138. A(C   4,C   3,N   5)          103.4108         0.374135   
    139. A(C   2,C   3,C   4)           99.8132         0.328516   
    140. A(C   2,C   3,N   5)          156.6788         0.286850   
    141. A(C   3,C   4,N   7)          112.9844         0.446004   
    142. A(N   7,C   4,H  10)          120.6727         0.363299   
    143. A(C   3,C   4,H  10)          126.3241         0.354218   
    144. A(Co  0,N   5,C   3)          161.8277         0.322564   
    145. A(Co  0,N   5,C   6)           98.8955         0.367832   
    146. A(C   3,N   5,C   6)           99.1262         0.370184   
    147. A(N   5,C   6,H  11)          125.4627         0.354492   
    148. A(N   7,C   6,H  11)          117.4012         0.365150   
    149. A(N   5,C   6,N   7)          117.0873         0.438157   
    150. A(C   4,N   7,H  12)          126.2458         0.362342   
    151. A(C   4,N   7,C   6)          107.3885         0.455188   
    152. A(C   6,N   7,H  12)          126.3508         0.360091   
    153. A(C  14,C  13,H  46)          109.7911         0.320474   
    154. A(C  14,C  13,H  45)          110.1141         0.320402   
    155. A(C  14,C  13,H  44)          109.5942         0.320507   
    156. A(H  44,C  13,H  45)          109.0975         0.284094   
    157. A(H  44,C  13,H  46)          109.0293         0.284155   
    158. A(H  45,C  13,H  46)          109.1928         0.284066   
    159. A(C  13,C  14,H  20)          104.9734         0.320254   
    160. A(C  15,C  14,H  20)          106.5478         0.314599   
    161. A(C  13,C  14,H  21)          108.3250         0.320377   
    162. A(C  15,C  14,H  21)          107.1075         0.314718   
    163. A(C  13,C  14,C  15)          122.1988         0.356877   
    164. A(H  20,C  14,H  21)          106.7865         0.283859   
    165. A(C  14,C  15,C  16)          130.6283         0.386438   
    166. A(C  14,C  15,N  17)          122.6165         0.390642   
    167. A(C  16,C  15,N  17)          106.2324         0.432326   
    168. A(C  15,C  16,H  23)          125.2349         0.352226   
    169. A(N  19,C  16,H  23)          124.2651         0.349191   
    170. A(C  15,C  16,N  19)          110.1317         0.423638   
    171. A(C  18,N  17,H  22)          125.7796         0.353048   
    172. A(C  15,N  17,H  22)          126.5620         0.354476   
    173. A(C  15,N  17,C  18)          107.4834         0.435305   
    174. A(N  17,C  18,H  24)          121.4009         0.356259   
    175. A(N  19,C  18,H  24)          125.7866         0.355508   
    176. A(N  17,C  18,N  19)          112.6252         0.432474   
    177. A(C  16,N  19,C  18)          103.4749         0.425593   
    178. A(Co  0,N  19,C  16)          123.5993         0.463897   
    179. A(Co  0,N  19,C  18)          132.0027         0.470485   
    180. A(Co  0,O  25,C  33)          110.9550         0.602842   
    181. A(Co  0,O  26,C  32)          116.7018         0.608943   
    182. A(Co  0,O  27,C  34)          114.0271         0.599639   
    183. A(Co  0,N  28,C  41)          106.9355         0.468836   
    184. A(C  35,N  28,C  41)          110.9030         0.364824   
    185. A(C  38,N  28,C  41)          111.7893         0.364971   
    186. A(Co  0,N  28,C  35)          101.2553         0.474951   
    187. A(Co  0,N  28,C  38)          106.1239         0.475156   
    188. A(C  35,N  28,C  38)          118.5370         0.369413   
    189. A(Co  0,C  32,O  30)          159.1186         0.339317   
    190. A(O  26,C  32,O  30)          120.6302         0.478696   
    191. A(Co  0,C  32,C  41)           79.5318         0.320004   
    192. A(O  26,C  32,C  41)          118.0859         0.448629   
    193. A(O  30,C  32,C  41)          121.2749         0.410660   
    194. A(Co  0,C  32,O  26)           38.5623         0.368865   
    195. A(Co  0,C  33,O  25)           41.8795         0.380658   
    196. A(Co  0,C  33,O  31)          162.0878         0.354169   
    197. A(O  25,C  33,O  31)          120.4503         0.472586   
    198. A(Co  0,C  33,C  35)           76.5122         0.324664   
    199. A(O  25,C  33,C  35)          118.3877         0.429905   
    200. A(O  31,C  33,C  35)          121.0941         0.398944   
    201. A(Co  0,C  34,O  27)           40.1003         0.369569   
    202. A(Co  0,C  34,O  29)          160.0125         0.343240   
    203. A(O  27,C  34,O  29)          120.3501         0.473795   
    204. A(Co  0,C  34,C  38)           78.5129         0.317606   
    205. A(O  27,C  34,C  38)          118.5857         0.434998   
    206. A(O  29,C  34,C  38)          120.9855         0.402529   
    207. A(Co  0,C  35,C  33)           68.9980         0.304996   
    208. A(N  28,C  35,C  33)          106.9706         0.366850   
    209. A(Co  0,C  35,H  36)          100.6917         0.270823   
    210. A(N  28,C  35,H  36)          111.8837         0.322891   
    211. A(C  33,C  35,H  36)          107.1964         0.320876   
    212. A(Co  0,C  35,H  37)          150.0278         0.270508   
    213. A(N  28,C  35,H  37)          111.4739         0.322486   
    214. A(C  33,C  35,H  37)          112.4130         0.320475   
    215. A(Co  0,C  35,N  28)           45.2198         0.306873   
    216. A(H  36,C  35,H  37)          106.8881         0.283852   
    217. A(Co  0,C  38,C  34)           68.2961         0.292378   
    218. A(N  28,C  38,C  34)          107.1310         0.370239   
    219. A(Co  0,C  38,H  39)          142.0373         0.258160   
    220. A(N  28,C  38,H  39)          111.9064         0.322921   
    221. A(C  34,C  38,H  39)          110.4107         0.323485   
    222. A(Co  0,C  38,H  40)          111.7823         0.258800   
    223. A(N  28,C  38,H  40)          112.6523         0.323806   
    224. A(C  34,C  38,H  40)          110.7098         0.324372   
    225. A(H  39,C  38,H  40)          104.0809         0.284771   
    226. A(Co  0,C  38,N  28)           42.3077         0.291889   
    227. A(Co  0,C  41,C  32)           68.3004         0.292749   
    228. A(N  28,C  41,C  32)          109.4154         0.372865   
    229. A(Co  0,C  41,H  42)          120.2868         0.253815   
    230. A(N  28,C  41,H  42)          112.8855         0.318621   
    231. A(C  32,C  41,H  42)          106.9794         0.329119   
    232. A(Co  0,C  41,H  43)          132.4879         0.254114   
    233. A(N  28,C  41,H  43)          112.7598         0.319038   
    234. A(C  32,C  41,H  43)          108.2655         0.329555   
    235. A(Co  0,C  41,N  28)           41.5468         0.283841   
    236. A(H  42,C  41,H  43)          106.2647         0.283588   
    237. D(C   3,C   2,C   1,H  47)    -56.7417         0.011143   
    238. D(H   8,C   2,C   1,H  47)    177.7033         0.011143   
    239. D(C   3,C   2,C   1,H  48)   -176.7626         0.011143   
    240. D(H   9,C   2,C   1,H  48)    -60.1816         0.011143   
    241. D(H   8,C   2,C   1,H  49)    -62.1775         0.011143   
    242. D(H   9,C   2,C   1,H  49)    179.9586         0.011143   
    243. D(H   8,C   2,C   1,H  48)     57.6823         0.011143   
    244. D(C   3,C   2,C   1,H  49)     63.3776         0.011143   
    245. D(H   9,C   2,C   1,H  47)     59.8393         0.011143   
    246. D(C   4,C   3,C   2,C   1)    -87.6364         0.002359   
    247. D(N   5,C   3,C   2,H   8)   -147.7064         0.002359   
    248. D(N   5,C   3,C   2,C   1)     87.0921         0.002359   
    249. D(C   4,C   3,C   2,H   9)    155.7409         0.002359   
    250. D(C   4,C   3,C   2,H   8)     37.5651         0.002359   
    251. D(N   5,C   3,C   2,H   9)    -29.5306         0.002359   
    252. D(H  10,C   4,C   3,N   5)   -178.8675         0.026642   
    253. D(H  10,C   4,C   3,C   2)     -1.0104         0.026642   
    254. D(N   7,C   4,C   3,N   5)     -0.4465         0.026642   
    255. D(N   7,C   4,C   3,C   2)    177.4106         0.026642   
    256. D(C   6,N   5,Co  0,O  26)   -119.4214         0.001645   
    257. D(C   3,N   5,Co  0,C  33)    -35.1818         0.001645   
    258. D(C   6,N   5,Co  0,C  35)    116.0093         0.001645   
    259. D(C   3,N   5,Co  0,C  32)     65.4178         0.001645   
    260. D(C   6,N   5,Co  0,C  34)    -22.3601         0.001645   
    261. D(C   6,N   5,Co  0,C  33)    137.3753         0.001645   
    262. D(C   3,N   5,Co  0,C  38)   -179.5558         0.001645   
    263. D(C   6,N   5,C   3,C   4)      0.5013         0.006489   
    264. D(C   6,N   5,C   3,C   2)   -174.1586         0.006489   
    265. D(C   3,N   5,Co  0,O  27)    157.8089         0.001645   
    266. D(C   3,N   5,Co  0,C  41)     60.1820         0.001645   
    267. D(C   3,N   5,Co  0,C  35)    -56.5478         0.001645   
    268. D(C   6,N   5,Co  0,O  25)    147.1174         0.001645   
    269. D(C   6,N   5,Co  0,O  27)    -29.6339         0.001645   
    270. D(C   6,N   5,Co  0,N  19)     59.8799         0.001645   
    271. D(C   3,N   5,Co  0,C  34)    165.0827         0.001645   
    272. D(Co  0,N   5,C   3,C   4)    173.0536         0.006489   
    273. D(C   3,N   5,Co  0,N  19)   -112.6772         0.001645   
    274. D(C   6,N   5,Co  0,C  38)     -6.9986         0.001645   
    275. D(C   3,N   5,Co  0,O  25)    -25.4397         0.001645   
    276. D(Co  0,N   5,C   3,C   2)     -1.6062         0.006489   
    277. D(C   6,N   5,Co  0,C  32)   -122.0251         0.001645   
    278. D(C   6,N   5,Co  0,C  41)   -127.2609         0.001645   
    279. D(C   3,N   5,Co  0,O  26)     68.0214         0.001645   
    280. D(N   7,C   6,N   5,Co  0)   -178.1052         0.029535   
    281. D(H  11,C   6,N   5,Co  0)     -0.7233         0.029535   
    282. D(H  11,C   6,N   5,C   3)    176.9316         0.029535   
    283. D(N   7,C   6,N   5,C   3)     -0.4502         0.029535   
    284. D(C   4,N   7,C   6,H  11)   -177.3867         0.043144   
    285. D(C   4,N   7,C   6,N   5)      0.2115         0.043144   
    286. D(H  12,N   7,C   6,H  11)      1.2738         0.043144   
    287. D(C   6,N   7,C   4,H  10)    178.7143         0.046783   
    288. D(H  12,N   7,C   6,N   5)    178.8720         0.043144   
    289. D(H  12,N   7,C   4,C   3)   -178.4689         0.046783   
    290. D(H  12,N   7,C   4,H  10)      0.0520         0.046783   
    291. D(C   6,N   7,C   4,C   3)      0.1934         0.046783   
    292. D(C  15,C  14,C  13,H  44)    -61.3437         0.011184   
    293. D(C  15,C  14,C  13,H  46)     58.3864         0.011184   
    294. D(H  21,C  14,C  13,H  45)    -56.2748         0.011184   
    295. D(H  20,C  14,C  13,H  44)    177.5368         0.011184   
    296. D(H  20,C  14,C  13,H  45)     57.5229         0.011184   
    297. D(H  20,C  14,C  13,H  46)    -62.7331         0.011184   
    298. D(H  21,C  14,C  13,H  44)     63.7392         0.011184   
    299. D(C  15,C  14,C  13,H  45)    178.6424         0.011184   
    300. D(H  21,C  14,C  13,H  46)   -176.5308         0.011184   
    301. D(N  17,C  15,C  14,C  13)   -116.0452         0.008577   
    302. D(C  16,C  15,C  14,H  21)    -52.1856         0.008577   
    303. D(N  17,C  15,C  14,H  21)    118.3238         0.008577   
    304. D(N  17,C  15,C  14,H  20)      4.3273         0.008577   
    305. D(C  16,C  15,C  14,C  13)     73.4454         0.008577   
    306. D(C  16,C  15,C  14,H  20)   -166.1821         0.008577   
    307. D(H  23,C  16,C  15,C  14)     -3.9764         0.024332   
    308. D(H  23,C  16,C  15,N  17)   -175.6594         0.024332   
    309. D(N  19,C  16,C  15,C  14)    169.2838         0.024332   
    310. D(N  19,C  16,C  15,N  17)     -2.3992         0.024332   
    311. D(C  18,N  17,C  15,C  16)      1.9680         0.035168   
    312. D(H  22,N  17,C  15,C  14)      4.8506         0.035168   
    313. D(C  18,N  17,C  15,C  14)   -170.5430         0.035168   
    314. D(H  22,N  17,C  15,C  16)    177.3616         0.035168   
    315. D(H  24,C  18,N  17,C  15)    174.3758         0.033393   
    316. D(N  19,C  18,N  17,H  22)   -176.3640         0.033393   
    317. D(H  24,C  18,N  17,H  22)     -1.0636         0.033393   
    318. D(N  19,C  18,N  17,C  15)     -0.9245         0.033393   
    319. D(Co  0,N  19,C  18,N  17)    168.4155         0.032506   
    320. D(C  18,N  19,Co  0,O  27)    -30.9848         0.003499   
    321. D(C  16,N  19,Co  0,N  28)   -135.8759         0.003499   
    322. D(C  18,N  19,Co  0,C  33)    119.9969         0.003499   
    323. D(C  18,N  19,Co  0,C  35)     85.1663         0.003499   
    324. D(C  16,N  19,Co  0,C  32)   -130.8188         0.003499   
    325. D(C  18,N  19,C  16,C  15)      1.7931         0.027550   
    326. D(C  16,N  19,Co  0,N   5)     44.1450         0.003499   
    327. D(C  16,N  19,Co  0,O  26)     52.1400         0.003499   
    328. D(C  18,N  19,Co  0,O  25)    146.7830         0.003499   
    329. D(C  16,N  19,Co  0,C  33)    -72.9097         0.003499   
    330. D(C  16,N  19,C  18,H  24)   -175.6096         0.032506   
    331. D(C  18,N  19,Co  0,C  32)     62.0878         0.003499   
    332. D(Co  0,N  19,C  18,H  24)     -6.6389         0.032506   
    333. D(C  16,N  19,Co  0,C  34)    161.7888         0.003499   
    334. D(C  16,N  19,C  18,N  17)     -0.5552         0.032506   
    335. D(C  18,N  19,C  16,H  23)    175.1323         0.027550   
    336. D(C  18,N  19,Co  0,C  41)     61.7225         0.003499   
    337. D(C  16,N  19,Co  0,C  35)   -107.7403         0.003499   
    338. D(C  16,N  19,Co  0,O  27)    136.1086         0.003499   
    339. D(Co  0,N  19,C  16,H  23)      4.9597         0.027550   
    340. D(C  16,N  19,Co  0,C  41)   -131.1841         0.003499   
    341. D(Co  0,N  19,C  16,C  15)   -168.3795         0.027550   
    342. D(C  18,N  19,Co  0,N   5)   -122.9484         0.003499   
    343. D(C  18,N  19,Co  0,N  28)     57.0307         0.003499   
    344. D(C  18,N  19,Co  0,C  34)     -5.3046         0.003499   
    345. D(C  18,N  19,Co  0,O  26)   -114.9534         0.003499   
    346. D(C  16,N  19,Co  0,O  25)    -46.1236         0.003499   
    347. D(C  18,N  19,Co  0,C  38)     27.9353         0.003499   
    348. D(C  16,N  19,Co  0,C  38)   -164.9713         0.003499   
    349. D(C  33,O  25,Co  0,C  35)      0.5100         0.012458   
    350. D(C  33,O  25,Co  0,N   5)   -160.4389         0.012458   
    351. D(C  33,O  25,Co  0,O  26)    107.1565         0.012458   
    352. D(C  33,O  25,Co  0,N  28)     19.0654         0.012458   
    353. D(C  33,O  25,Co  0,C  38)      4.4151         0.012458   
    354. D(C  33,O  25,Co  0,C  34)     -0.3453         0.012458   
    355. D(C  33,O  25,Co  0,N  19)    -77.8253         0.012458   
    356. D(C  33,O  25,Co  0,C  41)     50.5092         0.012458   
    357. D(C  33,O  25,Co  0,C  32)     82.5443         0.012458   
    358. D(C  32,O  26,Co  0,O  27)     93.6438         0.012037   
    359. D(C  32,O  26,Co  0,C  33)    -58.0208         0.012037   
    360. D(C  32,O  26,Co  0,O  25)    -84.3917         0.012037   
    361. D(C  32,O  26,Co  0,N  28)      5.5770         0.012037   
    362. D(C  32,O  26,Co  0,N  19)    177.6148         0.012037   
    363. D(C  32,O  26,Co  0,N   5)   -174.4498         0.012037   
    364. D(C  32,O  26,Co  0,C  34)     68.3278         0.012037   
    365. D(C  32,O  26,Co  0,C  35)    -22.9381         0.012037   
    366. D(C  32,O  26,Co  0,C  38)     35.1274         0.012037   
    367. D(C  32,O  26,Co  0,C  41)      0.7365         0.012037   
    368. D(C  34,O  27,Co  0,N  28)    -14.5099         0.011547   
    369. D(C  34,O  27,Co  0,N   5)    164.9947         0.011547   
    370. D(C  34,O  27,Co  0,O  26)   -102.6083         0.011547   
    371. D(C  34,O  27,Co  0,N  19)     82.3889         0.011547   
    372. D(C  34,O  27,Co  0,C  32)    -77.9194         0.011547   
    373. D(C  34,O  27,Co  0,C  33)      8.9038         0.011547   
    374. D(C  34,O  27,Co  0,C  41)    -45.7515         0.011547   
    375. D(C  34,O  27,Co  0,C  38)     -1.3353         0.011547   
    376. D(C  34,O  27,O  25,C  33)      4.4920         0.001500   
    377. D(C  34,O  27,Co  0,C  35)      5.3438         0.011547   
    378. D(C  41,N  28,Co  0,O  26)     -7.7714         0.007132   
    379. D(C  41,N  28,Co  0,O  27)    -97.5433         0.007132   
    380. D(C  41,N  28,Co  0,C  35)    116.1595         0.007132   
    381. D(C  38,N  28,N   5,C   3)   -179.6032         0.001500   
    382. D(C  35,N  28,Co  0,N  19)     56.7693         0.007132   
    383. D(C  35,N  28,Co  0,O  25)    -30.4701         0.007132   
    384. D(C  38,N  28,Co  0,C  41)    119.4680         0.007132   
    385. D(C  35,N  28,Co  0,C  34)    139.2541         0.007132   
    386. D(C  38,N  28,Co  0,C  34)     14.8816         0.007132   
    387. D(C  35,N  28,Co  0,O  27)    146.2972         0.007132   
    388. D(C  38,N  28,Co  0,O  27)     21.9247         0.007132   
    389. D(C  38,N  28,Co  0,N  19)    -67.6032         0.007132   
    390. D(C  38,N  28,Co  0,O  25)   -154.8425         0.007132   
    391. D(C  38,N  28,Co  0,C  35)   -124.3724         0.007132   
    392. D(C  41,N  28,Co  0,C  33)     95.1986         0.007132   
    393. D(C  41,N  28,Co  0,N  19)    172.9288         0.007132   
    394. D(C  38,N  28,Co  0,C  32)    114.3014         0.007132   
    395. D(C  41,N  28,Co  0,O  25)     85.6895         0.007132   
    396. D(C  35,N  28,Co  0,C  41)   -116.1595         0.007132   
    397. D(C  41,N  28,Co  0,C  32)     -5.1666         0.007132   
    398. D(C  41,N  28,Co  0,C  38)   -119.4680         0.007132   
    399. D(C  35,N  28,N   5,C   3)    -55.3500         0.001500   
    400. D(C  35,N  28,Co  0,C  38)    124.3724         0.007132   
    401. D(C  35,N  28,N   5,C   6)    116.5709         0.001500   
    402. D(C  38,N  28,N   5,C   6)     -7.6823         0.001500   
    403. D(C  38,N  28,Co  0,C  33)   -145.3334         0.007132   
    404. D(C  41,N  28,N   5,C   3)     60.8496         0.001500   
    405. D(C  41,N  28,N   5,C   6)   -127.2295         0.001500   
    406. D(C  41,N  28,Co  0,C  34)   -104.5864         0.007132   
    407. D(C  35,N  28,Co  0,O  26)   -123.9310         0.007132   
    408. D(C  38,N  28,Co  0,O  26)    111.6966         0.007132   
    409. D(C  35,N  28,Co  0,C  32)   -121.3262         0.007132   
    410. D(C  35,N  28,Co  0,C  33)    -20.9610         0.007132   
    411. D(O  30,C  32,Co  0,C  41)    175.4297         0.001544   
    412. D(C  41,C  32,Co  0,O  26)    178.8411         0.001544   
    413. D(C  41,C  32,Co  0,O  25)    -84.6201         0.001544   
    414. D(O  26,C  32,Co  0,N   5)      6.2270         0.001544   
    415. D(C  41,C  32,Co  0,C  34)     66.9453         0.001544   
    416. D(O  26,C  32,Co  0,N  19)   -179.3809         0.001544   
    417. D(O  26,C  32,Co  0,O  25)     96.5388         0.001544   
    418. D(O  26,C  32,Co  0,C  33)    123.4879         0.001544   
    419. D(O  26,C  32,Co  0,C  34)   -111.8958         0.001544   
    420. D(O  30,C  32,Co  0,N  19)    174.8899         0.001544   
    421. D(O  26,C  32,Co  0,C  35)    157.8755         0.001544   
    422. D(O  26,C  32,Co  0,N  28)   -173.7682         0.001544   
    423. D(O  26,C  32,Co  0,C  41)   -178.8411         0.001544   
    424. D(O  30,C  32,Co  0,O  26)     -5.7292         0.001544   
    425. D(O  30,C  32,Co  0,N  28)   -179.4975         0.001544   
    426. D(O  30,C  32,Co  0,C  35)    152.1462         0.001544   
    427. D(O  30,C  32,Co  0,C  38)   -150.4354         0.001544   
    428. D(C  41,C  32,Co  0,N   5)   -174.9319         0.001544   
    429. D(C  41,C  32,Co  0,N  19)     -0.5398         0.001544   
    430. D(C  41,C  32,Co  0,O  27)     92.2736         0.001544   
    431. D(O  30,C  32,Co  0,O  25)     90.8096         0.001544   
    432. D(C  41,C  32,Co  0,N  28)      5.0729         0.001544   
    433. D(C  41,C  32,Co  0,C  33)    -57.6710         0.001544   
    434. D(C  41,C  32,Co  0,C  35)    -23.2834         0.001544   
    435. D(O  26,C  32,Co  0,C  38)   -144.7061         0.001544   
    436. D(C  41,C  32,Co  0,C  38)     34.1350         0.001544   
    437. D(O  30,C  32,O  26,Co  0)    177.6301         0.107640   
    438. D(O  30,C  32,Co  0,N   5)      0.4977         0.001544   
    439. D(O  30,C  32,Co  0,C  34)   -117.6251         0.001544   
    440. D(C  41,C  32,O  26,Co  0)     -1.2917         0.107640   
    441. D(O  26,C  32,Co  0,O  27)    -86.5675         0.001544   
    442. D(O  30,C  32,Co  0,C  33)    117.7586         0.001544   
    443. D(O  30,C  32,Co  0,O  27)    -92.2967         0.001544   
    444. D(O  31,C  33,Co  0,C  35)    169.9787         0.001572   
    445. D(O  31,C  33,O  25,Co  0)    176.1619         0.091268   
    446. D(C  35,C  33,Co  0,O  25)    179.2074         0.001572   
    447. D(C  35,C  33,Co  0,N  19)    -81.1722         0.001572   
    448. D(C  35,C  33,Co  0,C  32)     82.2015         0.001572   
    449. D(O  25,C  33,Co  0,C  41)   -125.3993         0.001572   
    450. D(O  25,C  33,Co  0,N   5)     21.7541         0.001572   
    451. D(O  25,C  33,Co  0,O  27)    175.1139         0.001572   
    452. D(O  25,C  33,Co  0,C  32)    -97.0059         0.001572   
    453. D(O  31,C  33,Co  0,N   5)     10.9401         0.001572   
    454. D(O  25,C  33,Co  0,C  35)   -179.2074         0.001572   
    455. D(O  31,C  33,Co  0,N  19)     88.8065         0.001572   
    456. D(O  31,C  33,Co  0,O  25)    -10.8140         0.001572   
    457. D(O  31,C  33,Co  0,C  34)    168.9861         0.001572   
    458. D(O  31,C  33,Co  0,C  41)   -136.2133         0.001572   
    459. D(C  35,C  33,Co  0,O  26)    103.0148         0.001572   
    460. D(O  31,C  33,Co  0,O  27)    164.2999         0.001572   
    461. D(C  35,C  33,Co  0,O  27)     -5.6788         0.001572   
    462. D(O  25,C  33,Co  0,C  38)   -176.1150         0.001572   
    463. D(C  35,C  33,Co  0,N  28)     20.4208         0.001572   
    464. D(C  35,C  33,Co  0,C  34)     -0.9925         0.001572   
    465. D(C  35,C  33,Co  0,C  38)      3.0924         0.001572   
    466. D(O  25,C  33,Co  0,C  34)    179.8001         0.001572   
    467. D(C  35,C  33,Co  0,C  41)     53.8081         0.001572   
    468. D(C  35,C  33,O  25,Co  0)     -0.8761         0.091268   
    469. D(O  31,C  33,Co  0,C  32)   -107.8198         0.001572   
    470. D(C  35,C  33,Co  0,N   5)   -159.0386         0.001572   
    471. D(O  25,C  33,Co  0,O  26)    -76.1926         0.001572   
    472. D(O  31,C  33,Co  0,N  28)   -169.6005         0.001572   
    473. D(O  25,C  33,Co  0,N  19)     99.6205         0.001572   
    474. D(O  31,C  33,Co  0,C  38)    173.0711         0.001572   
    475. D(O  25,C  33,Co  0,N  28)   -158.7865         0.001572   
    476. D(O  31,C  33,Co  0,O  26)    -87.0065         0.001572   
    477. D(O  29,C  34,Co  0,O  27)     14.0761         0.001550   
    478. D(O  27,C  34,Co  0,N  19)    -96.7536         0.001550   
    479. D(O  27,C  34,Co  0,O  25)   -174.4265         0.001550   
    480. D(O  29,C  34,Co  0,N   5)     -2.7807         0.001550   
    481. D(O  27,C  34,Co  0,N  28)    163.6904         0.001550   
    482. D(O  27,C  34,Co  0,C  32)    101.4407         0.001550   
    483. D(O  27,C  34,Co  0,C  33)   -174.6172         0.001550   
    484. D(O  27,C  34,Co  0,C  35)   -175.1792         0.001550   
    485. D(O  27,C  34,Co  0,C  38)    177.9078         0.001550   
    486. D(O  27,C  34,Co  0,O  26)     78.4951         0.001550   
    487. D(O  27,C  34,Co  0,C  41)    132.0084         0.001550   
    488. D(O  29,C  34,Co  0,N  19)    -82.6774         0.001550   
    489. D(O  29,C  34,Co  0,O  25)   -160.3503         0.001550   
    490. D(O  27,C  34,Co  0,N   5)    -16.8568         0.001550   
    491. D(O  29,C  34,Co  0,O  26)     92.5712         0.001550   
    492. D(O  29,C  34,Co  0,N  28)    177.7665         0.001550   
    493. D(O  29,C  34,Co  0,C  32)    115.5168         0.001550   
    494. D(C  38,C  34,Co  0,C  41)    -45.8994         0.001550   
    495. D(O  29,C  34,Co  0,C  35)   -161.1030         0.001550   
    496. D(O  29,C  34,Co  0,C  38)   -168.0160         0.001550   
    497. D(O  29,C  34,Co  0,C  41)    146.0846         0.001550   
    498. D(C  38,C  34,Co  0,N   5)    165.2353         0.001550   
    499. D(C  38,C  34,Co  0,N  19)     85.3386         0.001550   
    500. D(C  38,C  34,Co  0,O  25)      7.6657         0.001550   
    501. D(C  38,C  34,Co  0,O  26)    -99.4127         0.001550   
    502. D(C  38,C  34,Co  0,O  27)   -177.9078         0.001550   
    503. D(C  38,C  34,Co  0,N  28)    -14.2174         0.001550   
    504. D(C  38,C  34,Co  0,C  32)    -76.4671         0.001550   
    505. D(C  38,C  34,Co  0,C  33)      7.4750         0.001550   
    506. D(O  29,C  34,Co  0,C  33)   -160.5410         0.001550   
    507. D(C  38,C  34,Co  0,C  35)      6.9130         0.001550   
    508. D(O  29,C  34,O  27,Co  0)   -174.4718         0.094339   
    509. D(C  38,C  34,O  27,Co  0)      2.3350         0.094339   
    510. D(N  28,C  35,Co  0,N   5)   -179.2345         0.001536   
    511. D(N  28,C  35,Co  0,N  19)   -122.0428         0.001536   
    512. D(H  37,C  35,C  33,Co  0)   -147.7145         0.012015   
    513. D(N  28,C  35,Co  0,O  26)     59.7559         0.001536   
    514. D(N  28,C  35,Co  0,O  27)    -37.9204         0.001536   
    515. D(N  28,C  35,C  33,O  31)    158.5444         0.012015   
    516. D(N  28,C  35,Co  0,C  33)    145.2293         0.001536   
    517. D(N  28,C  35,Co  0,C  34)    -35.5913         0.001536   
    518. D(Co  0,C  35,C  33,O  25)      0.6015         0.012015   
    519. D(N  28,C  35,Co  0,C  41)     35.2895         0.001536   
    520. D(C  33,C  35,Co  0,N   5)     35.5363         0.001536   
    521. D(C  33,C  35,Co  0,N  19)     92.7279         0.001536   
    522. D(C  33,C  35,Co  0,O  25)     -0.4112         0.001536   
    523. D(C  33,C  35,Co  0,O  26)    -85.4733         0.001536   
    524. D(C  33,C  35,Co  0,O  27)    176.8503         0.001536   
    525. D(C  33,C  35,N  28,C  38)    149.3261         0.016013   
    526. D(C  33,C  35,Co  0,C  32)    -94.9226         0.001536   
    527. D(C  33,C  35,Co  0,C  34)    179.1795         0.001536   
    528. D(H  37,C  35,Co  0,C  41)    -11.2071         0.001536   
    529. D(C  33,C  35,Co  0,C  41)   -109.9397         0.001536   
    530. D(H  36,C  35,Co  0,N   5)    -68.9294         0.001536   
    531. D(H  37,C  35,Co  0,C  32)      3.8100         0.001536   
    532. D(H  36,C  35,Co  0,O  25)   -104.8768         0.001536   
    533. D(H  36,C  35,Co  0,O  26)    170.0610         0.001536   
    534. D(H  36,C  35,Co  0,O  27)     72.3847         0.001536   
    535. D(H  36,C  35,Co  0,N  28)    110.3051         0.001536   
    536. D(H  36,C  35,Co  0,C  32)    160.6117         0.001536   
    537. D(H  36,C  35,Co  0,C  33)   -104.4657         0.001536   
    538. D(H  36,C  35,Co  0,C  34)     74.7138         0.001536   
    539. D(H  36,C  35,Co  0,C  38)     79.2284         0.001536   
    540. D(H  36,C  35,Co  0,C  41)    145.5946         0.001536   
    541. D(H  37,C  35,Co  0,N   5)    134.2689         0.001536   
    542. D(H  37,C  35,Co  0,N  19)   -168.5394         0.001536   
    543. D(H  37,C  35,Co  0,O  25)     98.3214         0.001536   
    544. D(H  37,C  35,Co  0,O  26)     13.2593         0.001536   
    545. D(H  37,C  35,Co  0,O  27)    -84.4171         0.001536   
    546. D(H  36,C  35,Co  0,N  19)    -11.7377         0.001536   
    547. D(H  37,C  35,Co  0,N  28)    -46.4966         0.001536   
    548. D(H  37,C  35,Co  0,C  33)     98.7326         0.001536   
    549. D(H  37,C  35,Co  0,C  34)    -82.0879         0.001536   
    550. D(C  33,C  35,Co  0,C  38)   -176.3060         0.001536   
    551. D(H  37,C  35,Co  0,C  38)    -77.5734         0.001536   
    552. D(Co  0,C  35,N  28,C  38)    115.5018         0.016013   
    553. D(Co  0,C  35,N  28,C  41)   -113.1997         0.016013   
    554. D(C  33,C  35,Co  0,N  28)   -145.2293         0.001536   
    555. D(C  33,C  35,N  28,Co  0)     33.8243         0.016013   
    556. D(C  33,C  35,N  28,C  41)    -79.3754         0.016013   
    557. D(H  36,C  35,N  28,Co  0)    -83.2850         0.016013   
    558. D(H  36,C  35,N  28,C  38)     32.2169         0.016013   
    559. D(H  36,C  35,N  28,C  41)    163.5154         0.016013   
    560. D(H  37,C  35,N  28,Co  0)    157.0833         0.016013   
    561. D(H  37,C  35,N  28,C  38)    -87.4149         0.016013   
    562. D(N  28,C  35,Co  0,C  38)    -31.0767         0.001536   
    563. D(H  37,C  35,N  28,C  41)     43.8836         0.016013   
    564. D(Co  0,C  35,C  33,O  31)   -176.4167         0.012015   
    565. D(N  28,C  35,C  33,Co  0)    -25.0389         0.012015   
    566. D(N  28,C  35,Co  0,C  32)     50.3066         0.001536   
    567. D(N  28,C  35,C  33,O  25)    -24.4374         0.012015   
    568. D(H  36,C  35,C  33,Co  0)     95.1183         0.012015   
    569. D(H  36,C  35,C  33,O  25)     95.7198         0.012015   
    570. D(N  28,C  35,Co  0,O  25)    144.8181         0.001536   
    571. D(H  36,C  35,C  33,O  31)    -81.2984         0.012015   
    572. D(H  37,C  35,C  33,O  25)   -147.1131         0.012015   
    573. D(H  37,C  35,C  33,O  31)     35.8688         0.012015   
    574. D(N  28,C  38,Co  0,N   5)    179.1455         0.001520   
    575. D(N  28,C  38,Co  0,N  19)    112.7585         0.001520   
    576. D(H  40,C  38,C  34,Co  0)   -106.0518         0.013258   
    577. D(N  28,C  38,Co  0,O  26)    -70.3131         0.001520   
    578. D(N  28,C  38,Co  0,O  27)   -154.2074         0.001520   
    579. D(N  28,C  38,C  34,O  29)   -167.6126         0.013258   
    580. D(N  28,C  38,Co  0,C  33)     30.9037         0.001520   
    581. D(N  28,C  38,Co  0,C  34)   -155.2717         0.001520   
    582. D(Co  0,C  38,C  34,O  27)     -1.5346         0.013258   
    583. D(N  28,C  38,Co  0,C  41)    -34.3723         0.001520   
    584. D(C  34,C  38,Co  0,N   5)    -25.5828         0.001520   
    585. D(C  34,C  38,Co  0,N  19)    -91.9698         0.001520   
    586. D(C  34,C  38,Co  0,O  25)   -175.8392         0.001520   
    587. D(C  34,C  38,Co  0,O  26)     84.9586         0.001520   
    588. D(C  34,C  38,Co  0,O  27)      1.0643         0.001520   
    589. D(C  34,C  38,N  28,C  35)   -136.8575         0.016089   
    590. D(C  34,C  38,Co  0,C  32)     99.1476         0.001520   
    591. D(C  34,C  38,Co  0,C  33)   -173.8245         0.001520   
    592. D(H  40,C  38,Co  0,C  41)   -134.5742         0.001520   
    593. D(C  34,C  38,Co  0,C  41)    120.8994         0.001520   
    594. D(H  39,C  38,Co  0,N   5)   -121.3251         0.001520   
    595. D(H  40,C  38,Co  0,C  32)   -156.3261         0.001520   
    596. D(H  39,C  38,Co  0,O  25)     88.4185         0.001520   
    597. D(H  39,C  38,Co  0,O  26)    -10.7837         0.001520   
    598. D(H  39,C  38,Co  0,O  27)    -94.6780         0.001520   
    599. D(H  39,C  38,Co  0,N  28)     59.5294         0.001520   
    600. D(H  39,C  38,Co  0,C  32)      3.4053         0.001520   
    601. D(H  39,C  38,Co  0,C  33)     90.4332         0.001520   
    602. D(H  39,C  38,Co  0,C  34)    -95.7423         0.001520   
    603. D(H  39,C  38,Co  0,C  35)     92.5245         0.001520   
    604. D(H  39,C  38,Co  0,C  41)     25.1571         0.001520   
    605. D(H  40,C  38,Co  0,N   5)     78.9436         0.001520   
    606. D(H  40,C  38,Co  0,N  19)     12.5565         0.001520   
    607. D(H  40,C  38,Co  0,O  25)    -71.3128         0.001520   
    608. D(H  40,C  38,Co  0,O  26)   -170.5151         0.001520   
    609. D(H  40,C  38,Co  0,O  27)    105.5907         0.001520   
    610. D(H  39,C  38,Co  0,N  19)    172.2879         0.001520   
    611. D(H  40,C  38,Co  0,N  28)   -100.2019         0.001520   
    612. D(H  40,C  38,Co  0,C  33)    -69.2982         0.001520   
    613. D(H  40,C  38,Co  0,C  34)    104.5264         0.001520   
    614. D(C  34,C  38,Co  0,C  35)   -171.7332         0.001520   
    615. D(H  40,C  38,Co  0,C  35)    -67.2069         0.001520   
    616. D(Co  0,C  38,N  28,C  35)   -112.8596         0.016089   
    617. D(Co  0,C  38,N  28,C  41)    116.2390         0.016089   
    618. D(C  34,C  38,Co  0,N  28)    155.2717         0.001520   
    619. D(C  34,C  38,N  28,Co  0)    -23.9979         0.016089   
    620. D(C  34,C  38,N  28,C  41)     92.2411         0.016089   
    621. D(H  39,C  38,N  28,Co  0)   -145.1485         0.016089   
    622. D(H  39,C  38,N  28,C  35)    101.9920         0.016089   
    623. D(H  39,C  38,N  28,C  41)    -28.9094         0.016089   
    624. D(H  40,C  38,N  28,Co  0)     97.9818         0.016089   
    625. D(H  40,C  38,N  28,C  35)    -14.8778         0.016089   
    626. D(N  28,C  38,Co  0,C  35)     32.9950         0.001520   
    627. D(H  40,C  38,N  28,C  41)   -145.7792         0.016089   
    628. D(Co  0,C  38,C  34,O  29)    175.2512         0.013258   
    629. D(N  28,C  38,C  34,Co  0)     17.1363         0.013258   
    630. D(N  28,C  38,Co  0,C  32)    -56.1242         0.001520   
    631. D(N  28,C  38,C  34,O  27)     15.6017         0.013258   
    632. D(H  39,C  38,C  34,Co  0)    139.2271         0.013258   
    633. D(H  39,C  38,C  34,O  27)    137.6925         0.013258   
    634. D(N  28,C  38,Co  0,O  25)     28.8891         0.001520   
    635. D(H  39,C  38,C  34,O  29)    -45.5218         0.013258   
    636. D(H  40,C  38,C  34,O  27)   -107.5864         0.013258   
    637. D(H  40,C  38,C  34,O  29)     69.1993         0.013258   
    638. D(N  28,C  41,Co  0,N   5)   -179.9216         0.001516   
    639. D(N  28,C  41,Co  0,N  19)     -8.9365         0.001516   
    640. D(H  43,C  41,C  32,Co  0)   -129.3593         0.016596   
    641. D(N  28,C  41,Co  0,O  26)    170.7162         0.001516   
    642. D(N  28,C  41,Co  0,O  27)     82.5500         0.001516   
    643. D(N  28,C  41,C  32,O  30)    175.7947         0.016596   
    644. D(N  28,C  41,Co  0,C  33)    -71.8549         0.001516   
    645. D(N  28,C  41,Co  0,C  34)     63.6147         0.001516   
    646. D(Co  0,C  41,C  32,O  26)      0.8188         0.016596   
    647. D(N  28,C  41,Co  0,C  38)     34.4287         0.001516   
    648. D(C  32,C  41,Co  0,N   5)      8.7834         0.001516   
    649. D(C  32,C  41,Co  0,N  19)    179.7685         0.001516   
    650. D(C  32,C  41,Co  0,O  25)     94.9846         0.001516   
    651. D(C  32,C  41,Co  0,O  26)     -0.5788         0.001516   
    652. D(C  32,C  41,Co  0,O  27)    -88.7450         0.001516   
    653. D(C  32,C  41,N  28,C  35)    118.1290         0.013928   
    654. D(C  32,C  41,Co  0,C  33)    116.8501         0.001516   
    655. D(C  32,C  41,Co  0,C  34)   -107.6803         0.001516   
    656. D(H  43,C  41,Co  0,C  38)    -41.5330         0.001516   
    657. D(C  32,C  41,Co  0,C  38)   -136.8663         0.001516   
    658. D(H  42,C  41,Co  0,N   5)    -88.7766         0.001516   
    659. D(H  43,C  41,Co  0,C  32)     95.3333         0.001516   
    660. D(H  42,C  41,Co  0,O  25)     -2.5754         0.001516   
    661. D(H  42,C  41,Co  0,O  26)    -98.1388         0.001516   
    662. D(H  42,C  41,Co  0,O  27)    173.6950         0.001516   
    663. D(H  42,C  41,Co  0,N  28)     91.1450         0.001516   
    664. D(H  42,C  41,Co  0,C  32)    -97.5600         0.001516   
    665. D(H  42,C  41,Co  0,C  33)     19.2901         0.001516   
    666. D(H  42,C  41,Co  0,C  34)    154.7597         0.001516   
    667. D(H  42,C  41,Co  0,C  35)     53.5302         0.001516   
    668. D(H  42,C  41,Co  0,C  38)    125.5737         0.001516   
    669. D(H  43,C  41,Co  0,N   5)    104.1167         0.001516   
    670. D(H  43,C  41,Co  0,N  19)    -84.8982         0.001516   
    671. D(H  43,C  41,Co  0,O  25)   -169.6821         0.001516   
    672. D(H  43,C  41,Co  0,O  26)     94.7544         0.001516   
    673. D(H  43,C  41,Co  0,O  27)      6.5883         0.001516   
    674. D(H  42,C  41,Co  0,N  19)     82.2085         0.001516   
    675. D(H  43,C  41,Co  0,N  28)    -75.9617         0.001516   
    676. D(H  43,C  41,Co  0,C  33)   -147.8166         0.001516   
    677. D(H  43,C  41,Co  0,C  34)    -12.3470         0.001516   
    678. D(C  32,C  41,Co  0,C  35)    151.0903         0.001516   
    679. D(H  43,C  41,Co  0,C  35)   -113.5765         0.001516   
    680. D(Co  0,C  41,N  28,C  35)    109.5542         0.013928   
    681. D(Co  0,C  41,N  28,C  38)   -115.7450         0.013928   
    682. D(C  32,C  41,Co  0,N  28)   -171.2950         0.001516   
    683. D(C  32,C  41,N  28,Co  0)      8.5748         0.013928   
    684. D(C  32,C  41,N  28,C  38)   -107.1702         0.013928   
    685. D(H  42,C  41,N  28,Co  0)   -110.4291         0.013928   
    686. D(H  42,C  41,N  28,C  35)     -0.8749         0.013928   
    687. D(H  42,C  41,N  28,C  38)    133.8259         0.013928   
    688. D(H  43,C  41,N  28,Co  0)    129.1220         0.013928   
    689. D(H  43,C  41,N  28,C  35)   -121.3238         0.013928   
    690. D(N  28,C  41,Co  0,C  35)    -37.6148         0.001516   
    691. D(H  43,C  41,N  28,C  38)     13.3770         0.013928   
    692. D(Co  0,C  41,C  32,O  30)   -178.0957         0.016596   
    693. D(N  28,C  41,C  32,Co  0)     -6.1096         0.016596   
    694. D(N  28,C  41,Co  0,C  32)    171.2950         0.001516   
    695. D(N  28,C  41,C  32,O  26)     -5.2908         0.016596   
    696. D(H  42,C  41,C  32,Co  0)    116.4890         0.016596   
    697. D(H  42,C  41,C  32,O  26)    117.3078         0.016596   
    698. D(N  28,C  41,Co  0,O  25)    -93.7204         0.001516   
    699. D(H  42,C  41,C  32,O  30)    -61.6067         0.016596   
    700. D(H  43,C  41,C  32,O  26)   -128.5405         0.016596   
    701. D(H  43,C  41,C  32,O  30)     52.5450         0.016596   
    702. C_0(Co  0)                     -1.9482         1.000000 C 
    703. C_1(Co  0)                      2.3203         1.000000 C 
    704. C_2(Co  0)                    -12.0796         1.000000 C 
    705. C_1(C   1)                      2.3773         1.000000 C 
    706. C_0(C   1)                      2.8468         1.000000 C 
    707. C_2(C   1)                     -8.2326         1.000000 C 
    708. C_2(C   2)                     -9.7416         1.000000 C 
    709. C_1(C   2)                      2.4883         1.000000 C 
    710. C_0(C   2)                      3.0738         1.000000 C 
    711. C_0(C  13)                     -2.3362         1.000000 C 
    712. C_2(C  13)                     -6.0486         1.000000 C 
    713. C_1(C  13)                     -0.3047         1.000000 C 
    714. C_2(C  14)                     -7.4156         1.000000 C 
    715. C_1(C  14)                     -0.8917         1.000000 C 
    716. C_0(C  14)                     -1.9812         1.000000 C 
    -----------------------------------------------------------------

Number of atoms                         .... 50
Number of degrees of freedom            .... 716

         *************************************************************
         *                GEOMETRY OPTIMIZATION CYCLE   1            *
         *************************************************************
---------------------------------
CARTESIAN COORDINATES (ANGSTROEM)
---------------------------------
  Co    -1.948160    2.320320  -12.079610
  C      2.846840    2.377320   -8.232610
  C      3.073840    2.488320   -9.741610
  C      1.656440    1.733780  -10.622370
  C      2.089100    0.412080  -10.679640
  N      0.226390    1.681210  -11.296380
  C      0.165760    0.342040  -11.572780
  N      1.211780   -0.390430  -11.233010
  H      4.050150    2.053930  -10.049910
  H      3.094260    3.567790  -10.000890
  H      3.028590    0.026780  -10.299490
  H     -0.668830   -0.163790  -12.002240
  H      1.312720   -1.422080  -11.360320
  C     -2.336160   -0.304680   -6.048610
  C     -1.981160   -0.891680   -7.415610
  C     -2.455300   -0.237550   -8.749240
  C     -2.026040    0.931200   -9.397150
  N     -3.291000   -0.856930   -9.604660
  C     -3.331210   -0.120070  -10.738990
  N     -2.559360    0.993190  -10.665800
  H     -2.397870   -1.922010   -7.402700
  H     -0.876600   -0.993080   -7.475990
  H     -3.762680   -1.776750   -9.457130
  H     -1.292670    1.625750   -9.010230
  H     -3.863800   -0.458860  -11.607600
  O     -2.032700    3.586890  -10.802990
  O     -1.257580    3.449290  -13.307700
  O     -1.958700    0.996340  -13.316260
  N     -3.676590    2.815550  -12.689330
  O     -3.241130   -0.263710  -14.640970
  O     -1.615920    5.029020  -14.830590
  O     -3.488220    4.817200   -9.630620
  C     -2.047040    4.126700  -13.929490
  C     -3.197170    3.933150  -10.602660
  C     -3.065980    0.767160  -13.793600
  C     -4.301280    3.284390  -11.435460
  H     -4.711860    2.443540  -10.838120
  H     -5.145290    3.980300  -11.636470
  C     -4.235700    1.620330  -13.352050
  H     -4.870300    1.888320  -14.223230
  H     -4.912540    1.045170  -12.692880
  C     -3.492060    3.948080  -13.649890
  H     -3.868720    4.917610  -13.253510
  H     -4.015650    3.782250  -14.615540
  H     -1.913430    0.718150   -5.961490
  H     -1.918270   -0.940730   -5.239600
  H     -3.439630   -0.251020   -5.937580
  H      1.883700    2.857380   -7.958980
  H      3.672710    2.883880   -7.690460
  H      2.819120    1.309320   -7.931570

----------------------------
CARTESIAN COORDINATES (A.U.)
----------------------------
  NO LB      ZA    FRAG     MASS         X           Y           Z
   0 Co   27.0000    0    58.930   -3.681489    4.384769  -22.827155
   1 C     6.0000    0    12.011    5.379748    4.492484  -15.557378
   2 C     6.0000    0    12.011    5.808716    4.702243  -18.408975
   3 C     6.0000    0    12.011    3.130218    3.276369  -20.073370
   4 C     6.0000    0    12.011    3.947827    0.778718  -20.181595
   5 N     7.0000    0    14.007    0.427815    3.177026  -21.347065
   6 C     6.0000    0    12.011    0.313241    0.646362  -21.869385
   7 N     7.0000    0    14.007    2.289932   -0.737806  -21.227313
   8 H     1.0000    0     1.008    7.653674    3.881365  -18.991578
   9 H     1.0000    0     1.008    5.847304    6.742146  -18.898943
  10 H     1.0000    0     1.008    5.723206    0.050607  -19.463215
  11 H     1.0000    0     1.008   -1.263906   -0.309518  -22.680947
  12 H     1.0000    0     1.008    2.480681   -2.687342  -21.467894
  13 C     6.0000    0    12.011   -4.414703   -0.575762  -11.430216
  14 C     6.0000    0    12.011   -3.743850   -1.685031  -14.013472
  15 C     6.0000    0    12.011   -4.639845   -0.448904  -16.533667
  16 C     6.0000    0    12.011   -3.828661    1.759713  -17.758040
  17 N     7.0000    0    14.007   -6.219089   -1.619363  -18.150177
  18 C     6.0000    0    12.011   -6.295075   -0.226899  -20.293750
  19 N     7.0000    0    14.007   -4.836489    1.876857  -20.155441
  20 H     1.0000    0     1.008   -4.531318   -3.632073  -13.989076
  21 H     1.0000    0     1.008   -1.656534   -1.876649  -14.127574
  22 H     1.0000    0     1.008   -7.110435   -3.357571  -17.871386
  23 H     1.0000    0     1.008   -2.442792    3.072222  -17.026867
  24 H     1.0000    0     1.008   -7.301524   -0.867120  -21.935185
  25 O     8.0000    0    15.999   -3.841246    6.778240  -20.414693
  26 O     8.0000    0    15.999   -2.376482    6.518213  -25.147908
  27 O     8.0000    0    15.999   -3.701407    1.882810  -25.164085
  28 N     7.0000    0    14.007   -6.947748    5.320618  -23.979359
  29 O     8.0000    0    15.999   -6.124848   -0.498340  -27.667424
  30 O     8.0000    0    15.999   -3.053646    9.503471  -28.025754
  31 O     8.0000    0    15.999   -6.591780    9.103189  -18.199234
  32 C     6.0000    0    12.011   -3.868345    7.798333  -26.322921
  33 C     6.0000    0    12.011   -6.041776    7.432576  -20.036124
  34 C     6.0000    0    12.011   -5.793863    1.449722  -26.066126
  35 C     6.0000    0    12.011   -8.128241    6.206598  -21.609888
  36 H     1.0000    0     1.008   -8.904125    4.617621  -20.481079
  37 H     1.0000    0     1.008   -9.723189    7.521677  -21.989741
  38 C     6.0000    0    12.011   -8.004313    3.061980  -25.231718
  39 H     1.0000    0     1.008   -9.203533    3.568408  -26.878009
  40 H     1.0000    0     1.008   -9.283355    1.975085  -23.986067
  41 C     6.0000    0    12.011   -6.599037    7.460790  -25.794554
  42 H     1.0000    0     1.008   -7.310821    9.292936  -25.045504
  43 H     1.0000    0     1.008   -7.588479    7.147417  -27.619368
  44 H     1.0000    0     1.008   -3.615859    1.357107  -11.265583
  45 H     1.0000    0     1.008   -3.625005   -1.777722   -9.901409
  46 H     1.0000    0     1.008   -6.499959   -0.474359  -11.220400
  47 H     1.0000    0     1.008    3.559677    5.399666  -15.040293
  48 H     1.0000    0     1.008    6.940416    5.449743  -14.532863
  49 H     1.0000    0     1.008    5.327365    2.474256  -14.988495

--------------------------------
INTERNAL COORDINATES (ANGSTROEM)
--------------------------------
 Co     0   0   0     0.000000000000     0.00000000     0.00000000
 C      1   0   0     6.147738039312     0.00000000     0.00000000
 C      2   1   0     1.530010130685    59.94877979     0.00000000
 C      3   2   1     1.831417906760   109.24438872   335.45167229
 C      4   3   2     1.391892746766    99.81316072   272.36359586
 N      4   3   2     1.581801532273   156.67882556    87.09211692
 C      6   4   3     1.368740021260    99.12616875   185.84142730
 N      5   4   3     1.311461413615   112.98437589   177.41061571
 H      3   2   1     1.112171200041   112.04310431   209.89659281
 H      3   2   1     1.110359660515   107.67167930    92.03267338
 H      5   4   3     1.084256230141   126.32412229   358.98961942
 H      7   6   4     1.066227156191   125.46265892   176.93160852
 H      8   5   4     1.044365090474   126.24576092   181.53108373
 C      7   6   4     6.098713358873    86.50333354    89.89058108
 C     14   7   6     1.529471477341    30.22065706   168.90514743
 C     15  14   7     1.559251029629   122.19883263   303.32996231
 C     16  15  14     1.403576887171   130.62825440    73.44540373
 N     16  15  14     1.346762581452   122.61654166   243.95478517
 C     18  16  15     1.353249442121   107.48344255   189.45702592
 N     19  18  16     1.356634448258   112.62518038   359.07548262
 H     15  14   7     1.111482703914   104.97335084   182.21043966
 H     15  14   7     1.110846748206   108.32501583    68.41278159
 H     18  16  15     1.044181955265   126.56198169     4.85062954
 H     17  16  15     1.081636882600   125.23490490   356.02362909
 H     19  18  16     1.073738377958   121.40089378   174.37582761
 O      1   2   3     1.800306974074    65.56691948   235.34071740
 O      1   2   3     1.805458126183    96.97968128   325.98231364
 O      1   2   3     1.811722206769   116.00471456    59.07768684
 N      1   2   3     1.898547206735   155.31512683   225.26671989
 O     28   1   2     2.233206056659   145.14229157   154.73605469
 O     27   1   2     2.223319225977   148.05642510   212.15141151
 O     26   1   2     2.237555045893   142.08467565   206.49238069
 C     27   1   2     1.211921698708   116.70179377   209.81780157
 C     26   1   2     1.231267021162   110.95495234   203.25463546
 C     28   1   2     1.227373596913   114.02705059   159.76513289
 C     29   1   2     1.477240169573   101.25530418   338.69357951
 H     36  29   1     1.110144015207   111.88368685   276.71504629
 H     36  29   1     1.112226878069   111.47389811   157.08330768
 C     29   1   2     1.476601719794   106.12391088   214.32113264
 H     39  29   1     1.110626126336   111.90641579   214.85154954
 H     39  29   1     1.106086117850   112.65228802    97.98176771
 C     33  27   1     1.482620674616   118.08591700   358.70826051
 H     42  33  27     1.113094012606   106.97936984   117.30783759
 H     42  33  27     1.110912237533   108.26548760   231.45952227
 H     14   7   6     1.110167445118    79.46546001   344.42708487
 H     14   7   6     1.110715460728   124.48079464   238.40576644
 H     14   7   6     1.110339181241   119.54787975    90.43702539
 H      2   1  26     1.110391660677    58.78056707    19.48140133
 H      2   1  26     1.110221109960   152.87345696   309.52915758
 H      2   1  26     1.109962828206    98.12401239   126.95773223

---------------------------
INTERNAL COORDINATES (A.U.)
---------------------------
 Co     0   0   0     0.000000000000     0.00000000     0.00000000
 C      1   0   0    11.617541237389     0.00000000     0.00000000
 C      2   1   0     2.891300129120    59.94877979     0.00000000
 C      3   2   1     3.460878280535   109.24438872   335.45167229
 C      4   3   2     2.630296099179    99.81316072   272.36359586
 N      4   3   2     2.989171694212   156.67882556    87.09211692
 C      6   4   3     2.586543788720    99.12616875   185.84142730
 N      5   4   3     2.478302906937   112.98437589   177.41061571
 H      3   2   1     2.101698982111   112.04310431   209.89659281
 H      3   2   1     2.098275668528   107.67167930    92.03267338
 H      5   4   3     2.048947333965   126.32412229   358.98961942
 H      7   6   4     2.014877321751   125.46265892   176.93160852
 H      8   5   4     1.973564004823   126.24576092   181.53108373
 C      7   6   4    11.524898017558    86.50333354    89.89058108
 C     14   7   6     2.890282221819    30.22065706   168.90514743
 C     15  14   7     2.946557420034   122.19883263   303.32996231
 C     16  15  14     2.652375924654   130.62825440    73.44540373
 N     16  15  14     2.545012446358   122.61654166   243.95478517
 C     18  16  15     2.557270836490   107.48344255   189.45702592
 N     19  18  16     2.563667571051   112.62518038   359.07548262
 H     15  14   7     2.100397912988   104.97335084   182.21043966
 H     15  14   7     2.099196130866   108.32501583    68.41278159
 H     18  16  15     1.973217929432   126.56198169     4.85062954
 H     17  16  15     2.043997484462   125.23490490   356.02362909
 H     19  18  16     2.029071473822   121.40089378   174.37582761
 O      1   2   3     3.402087137989    65.56691948   235.34071740
 O      1   2   3     3.411821404748    96.97968128   325.98231364
 O      1   2   3     3.423658801537   116.00471456    59.07768684
 N      1   2   3     3.587734273050   155.31512683   225.26671989
 O     28   1   2     4.220147847700   145.14229157   154.73605469
 O     27   1   2     4.201464445379   148.05642510   212.15141151
 O     26   1   2     4.228366246311   142.08467565   206.49238069
 C     27   1   2     2.290200106315   116.70179377   209.81780157
 C     26   1   2     2.326757467724   110.95495234   203.25463546
 C     28   1   2     2.319399962172   114.02705059   159.76513289
 C     29   1   2     2.791579354520   101.25530418   338.69357951
 H     36  29   1     2.097868157953   111.88368685   276.71504629
 H     36  29   1     2.101804198337   111.47389811   157.08330768
 C     29   1   2     2.790372859289   106.12391088   214.32113264
 H     39  29   1     2.098779215953   111.90641579   214.85154954
 H     39  29   1     2.090199843268   112.65228802    97.98176771
 C     33  27   1     2.801747035515   118.08591700   358.70826051
 H     42  33  27     2.103442845133   106.97936984   117.30783759
 H     42  33  27     2.099319887759   108.26548760   231.45952227
 H     14   7   6     2.097912434068    79.46546001   344.42708487
 H     14   7   6     2.098948033488   124.48079464   238.40576644
 H     14   7   6     2.098236968309   119.54787975    90.43702539
 H      2   1  26     2.098336140069    58.78056707    19.48140133
 H      2   1  26     2.098013845922   152.87345696   309.52915758
 H      2   1  26     2.097525764143    98.12401239   126.95773223

---------------------
BASIS SET INFORMATION
---------------------
There are 5 groups of distinct atoms

 Group   1 Type Co  : 17s11p7d1f contracted to 6s4p4d1f pattern {842111/6311/4111/1}
 Group   2 Type C   : 7s4p1d contracted to 3s2p1d pattern {511/31/1}
 Group   3 Type N   : 7s4p1d contracted to 3s2p1d pattern {511/31/1}
 Group   4 Type H   : 4s1p contracted to 2s1p pattern {31/1}
 Group   5 Type O   : 7s4p1d contracted to 3s2p1d pattern {511/31/1}

Atom   0Co   basis set group =>   1
Atom   1C    basis set group =>   2
Atom   2C    basis set group =>   2
Atom   3C    basis set group =>   2
Atom   4C    basis set group =>   2
Atom   5N    basis set group =>   3
Atom   6C    basis set group =>   2
Atom   7N    basis set group =>   3
Atom   8H    basis set group =>   4
Atom   9H    basis set group =>   4
Atom  10H    basis set group =>   4
Atom  11H    basis set group =>   4
Atom  12H    basis set group =>   4
Atom  13C    basis set group =>   2
Atom  14C    basis set group =>   2
Atom  15C    basis set group =>   2
Atom  16C    basis set group =>   2
Atom  17N    basis set group =>   3
Atom  18C    basis set group =>   2
Atom  19N    basis set group =>   3
Atom  20H    basis set group =>   4
Atom  21H    basis set group =>   4
Atom  22H    basis set group =>   4
Atom  23H    basis set group =>   4
Atom  24H    basis set group =>   4
Atom  25O    basis set group =>   5
Atom  26O    basis set group =>   5
Atom  27O    basis set group =>   5
Atom  28N    basis set group =>   3
Atom  29O    basis set group =>   5
Atom  30O    basis set group =>   5
Atom  31O    basis set group =>   5
Atom  32C    basis set group =>   2
Atom  33C    basis set group =>   2
Atom  34C    basis set group =>   2
Atom  35C    basis set group =>   2
Atom  36H    basis set group =>   4
Atom  37H    basis set group =>   4
Atom  38C    basis set group =>   2
Atom  39H    basis set group =>   4
Atom  40H    basis set group =>   4
Atom  41C    basis set group =>   2
Atom  42H    basis set group =>   4
Atom  43H    basis set group =>   4
Atom  44H    basis set group =>   4
Atom  45H    basis set group =>   4
Atom  46H    basis set group =>   4
Atom  47H    basis set group =>   4
Atom  48H    basis set group =>   4
Atom  49H    basis set group =>   4
---------------------------------
AUXILIARY/J BASIS SET INFORMATION
---------------------------------
There are 5 groups of distinct atoms

 Group   1 Type Co  : 19s5p5d3f3g contracted to 8s5p5d2f3g pattern {121111111/11111/11111/21/111}
 Group   2 Type C   : 12s5p4d2f1g contracted to 6s4p3d1f1g pattern {711111/2111/211/2/1}
 Group   3 Type N   : 12s5p4d2f1g contracted to 6s4p3d1f1g pattern {711111/2111/211/2/1}
 Group   4 Type H   : 5s2p1d contracted to 3s1p1d pattern {311/2/1}
 Group   5 Type O   : 12s5p4d2f1g contracted to 6s4p3d1f1g pattern {711111/2111/211/2/1}

Atom   0Co   basis set group =>   1
Atom   1C    basis set group =>   2
Atom   2C    basis set group =>   2
Atom   3C    basis set group =>   2
Atom   4C    basis set group =>   2
Atom   5N    basis set group =>   3
Atom   6C    basis set group =>   2
Atom   7N    basis set group =>   3
Atom   8H    basis set group =>   4
Atom   9H    basis set group =>   4
Atom  10H    basis set group =>   4
Atom  11H    basis set group =>   4
Atom  12H    basis set group =>   4
Atom  13C    basis set group =>   2
Atom  14C    basis set group =>   2
Atom  15C    basis set group =>   2
Atom  16C    basis set group =>   2
Atom  17N    basis set group =>   3
Atom  18C    basis set group =>   2
Atom  19N    basis set group =>   3
Atom  20H    basis set group =>   4
Atom  21H    basis set group =>   4
Atom  22H    basis set group =>   4
Atom  23H    basis set group =>   4
Atom  24H    basis set group =>   4
Atom  25O    basis set group =>   5
Atom  26O    basis set group =>   5
Atom  27O    basis set group =>   5
Atom  28N    basis set group =>   3
Atom  29O    basis set group =>   5
Atom  30O    basis set group =>   5
Atom  31O    basis set group =>   5
Atom  32C    basis set group =>   2
Atom  33C    basis set group =>   2
Atom  34C    basis set group =>   2
Atom  35C    basis set group =>   2
Atom  36H    basis set group =>   4
Atom  37H    basis set group =>   4
Atom  38C    basis set group =>   2
Atom  39H    basis set group =>   4
Atom  40H    basis set group =>   4
Atom  41C    basis set group =>   2
Atom  42H    basis set group =>   4
Atom  43H    basis set group =>   4
Atom  44H    basis set group =>   4
Atom  45H    basis set group =>   4
Atom  46H    basis set group =>   4
Atom  47H    basis set group =>   4
Atom  48H    basis set group =>   4
Atom  49H    basis set group =>   4
[...]
      pz      :     0.016083  p :     0.072140
      px      :     0.039331
      py      :     0.016727
 11 H s       :     0.887515  s :     0.887515
      pz      :     0.023885  p :     0.074414
      px      :     0.039164
      py      :     0.011365
 12 H s       :     0.756288  s :     0.756288
      pz      :     0.036007  p :     0.117937
      px      :     0.018331
      py      :     0.063598
 13 C s       :     2.851560  s :     2.851560
      pz      :     1.016068  p :     3.151287
      px      :     1.070187
      py      :     1.065032
      dz2     :     0.016877  d :     0.066460
      dxz     :     0.008146
      dyz     :     0.016711
      dx2y2   :     0.015145
      dxy     :     0.009581
 14 C s       :     2.840830  s :     2.840830
      pz      :     1.006346  p :     3.121608
      px      :     1.068984
      py      :     1.046278
      dz2     :     0.028737  d :     0.085605
      dxz     :     0.011732
      dyz     :     0.019120
      dx2y2   :     0.015769
      dxy     :     0.010247
 15 C s       :     2.870554  s :     2.870554
      pz      :     0.982726  p :     3.013708
      px      :     1.013844
      py      :     1.017138
      dz2     :     0.023387  d :     0.127730
      dxz     :     0.019102
      dyz     :     0.049741
      dx2y2   :     0.016438
      dxy     :     0.019062
 16 C s       :     2.872173  s :     2.872173
      pz      :     0.920962  p :     3.030413
      px      :     1.054303
      py      :     1.055148
      dz2     :     0.035548  d :     0.106671
      dxz     :     0.018550
      dyz     :     0.031203
      dx2y2   :     0.011453
      dxy     :     0.009917
 17 N s       :     3.048567  s :     3.048567
      pz      :     1.187242  p :     3.761458
      px      :     1.390830
      py      :     1.183386
      dz2     :     0.016821  d :     0.060871
      dxz     :     0.012432
      dyz     :     0.019871
      dx2y2   :     0.007023
      dxy     :     0.004723
 18 C s       :     2.847770  s :     2.847770
      pz      :     0.985124  p :     2.924542
      px      :     0.995384
      py      :     0.944035
      dz2     :     0.033733  d :     0.148615
      dxz     :     0.015667
      dyz     :     0.050563
      dx2y2   :     0.022436
      dxy     :     0.026215
 19 N s       :     3.118014  s :     3.118014
      pz      :     1.217121  p :     3.715610
      px      :     1.254425
      py      :     1.244064
      dz2     :     0.019424  d :     0.059056
      dxz     :     0.008567
      dyz     :     0.010867
      dx2y2   :     0.010702
      dxy     :     0.009497
 20 H s       :     0.885128  s :     0.885128
      pz      :     0.011491  p :     0.064857
      px      :     0.017444
      py      :     0.035922
 21 H s       :     0.879056  s :     0.879056
      pz      :     0.012031  p :     0.064968
      px      :     0.039424
      py      :     0.013513
 22 H s       :     0.748288  s :     0.748288
      pz      :     0.016045  p :     0.117348
      px      :     0.031267
      py      :     0.070036
 23 H s       :     0.881574  s :     0.881574
      pz      :     0.014463  p :     0.072320
      px      :     0.020113
      py      :     0.037743
 24 H s       :     0.871615  s :     0.871615
      pz      :     0.042053  p :     0.074154
      px      :     0.017792
      py      :     0.014309
 25 O s       :     3.469512  s :     3.469512
      pz      :     1.543681  p :     4.531070
      px      :     1.448693
      py      :     1.538696
      dz2     :     0.003932  d :     0.024067
      dxz     :     0.005219
      dyz     :     0.001211
      dx2y2   :     0.008978
      dxy     :     0.004726
 26 O s       :     3.457929  s :     3.457929
      pz      :     1.481739  p :     4.506092
      px      :     1.565050
      py      :     1.459303
      dz2     :     0.003579  d :     0.024757
      dxz     :     0.006159
      dyz     :     0.003734
      dx2y2   :     0.004040
      dxy     :     0.007246
 27 O s       :     3.466074  s :     3.466074
      pz      :     1.506269  p :     4.537542
      px      :     1.470228
      py      :     1.561045
      dz2     :     0.003554  d :     0.024049
      dxz     :     0.006859
      dyz     :     0.001441
      dx2y2   :     0.008081
      dxy     :     0.004113
 28 N s       :     3.080620  s :     3.080620
      pz      :     1.191088  p :     3.665396
      px      :     1.282062
      py      :     1.192246
      dz2     :     0.011496  d :     0.062425
      dxz     :     0.011511
      dyz     :     0.018831
      dx2y2   :     0.010726
      dxy     :     0.009861
 29 O s       :     3.557991  s :     3.557991
      pz      :     1.447169  p :     4.627919
      px      :     1.705169
      py      :     1.475580
      dz2     :     0.006310  d :     0.028553
      dxz     :     0.003868
      dyz     :     0.011422
      dx2y2   :     0.003726
      dxy     :     0.003226
 30 O s       :     3.558238  s :     3.558238
      pz      :     1.453074  p :     4.630316
      px      :     1.711739
      py      :     1.465502
      dz2     :     0.005994  d :     0.028500
      dxz     :     0.003920
      dyz     :     0.011225
      dx2y2   :     0.003972
      dxy     :     0.003389
 31 O s       :     3.557663  s :     3.557663
      pz      :     1.466491  p :     4.628525
      px      :     1.711314
      py      :     1.450720
      dz2     :     0.006965  d :     0.028513
      dxz     :     0.004846
      dyz     :     0.010636
      dx2y2   :     0.003007
      dxy     :     0.003059
 32 C s       :     2.839679  s :     2.839679
      pz      :     0.917845  p :     2.803550
      px      :     0.982236
      py      :     0.903469
      dz2     :     0.057036  d :     0.301899
      dxz     :     0.070592
      dyz     :     0.051182
      dx2y2   :     0.060512
      dxy     :     0.062577
 33 C s       :     2.846433  s :     2.846433
      pz      :     0.950970  p :     2.806021
      px      :     0.951761
      py      :     0.903289
      dz2     :     0.053784  d :     0.298282
      dxz     :     0.088937
      dyz     :     0.036223
      dx2y2   :     0.055619
      dxy     :     0.063719
 34 C s       :     2.847333  s :     2.847333
      pz      :     0.929432  p :     2.806556
      px      :     0.949593
      py      :     0.927531
      dz2     :     0.053372  d :     0.299262
      dxz     :     0.084197
      dyz     :     0.038938
      dx2y2   :     0.054543
      dxy     :     0.068211
 35 C s       :     2.864016  s :     2.864016
      pz      :     0.887296  p :     2.996259
      px      :     1.033916
      py      :     1.075047
      dz2     :     0.023351  d :     0.098139
      dxz     :     0.025052
      dyz     :     0.019726
      dx2y2   :     0.009786
      dxy     :     0.020223
 36 H s       :     0.861724  s :     0.861724
      pz      :     0.017564  p :     0.068723
      px      :     0.015516
      py      :     0.035643
 37 H s       :     0.875634  s :     0.875634
      pz      :     0.009460  p :     0.068004
      px      :     0.035234
      py      :     0.023310
 38 C s       :     2.861580  s :     2.861580
      pz      :     1.033641  p :     3.000503
      px      :     1.039014
      py      :     0.927848
      dz2     :     0.007027  d :     0.097086
      dxz     :     0.023932
      dyz     :     0.027108
      dx2y2   :     0.015052
      dxy     :     0.023967
 39 H s       :     0.873272  s :     0.873272
      pz      :     0.027300  p :     0.068568
      px      :     0.029481
      py      :     0.011787
 40 H s       :     0.860422  s :     0.860422
      pz      :     0.025787  p :     0.068778
      px      :     0.020478
      py      :     0.022512
 41 C s       :     2.861388  s :     2.861388
      pz      :     1.002479  p :     3.002483
      px      :     1.073864
      py      :     0.926140
      dz2     :     0.009158  d :     0.094627
      dxz     :     0.020958
      dyz     :     0.027849
      dx2y2   :     0.025176
      dxy     :     0.011486
 42 H s       :     0.858250  s :     0.858250
      pz      :     0.018762  p :     0.069061
      px      :     0.017119
      py      :     0.033180
 43 H s       :     0.867212  s :     0.867212
      pz      :     0.031867  p :     0.069089
      px      :     0.027341
      py      :     0.009881
 44 H s       :     0.901591  s :     0.901591
      pz      :     0.012599  p :     0.063700
      px      :     0.017489
      py      :     0.033612
 45 H s       :     0.894479  s :     0.894479
      pz      :     0.026200  p :     0.063930
      px      :     0.014809
      py      :     0.022920
 46 H s       :     0.903064  s :     0.903064
      pz      :     0.012120  p :     0.063739
      px      :     0.038933
      py      :     0.012686
 47 H s       :     0.906636  s :     0.906636
      pz      :     0.013421  p :     0.063672
      px      :     0.038058
      py      :     0.012194
 48 H s       :     0.903629  s :     0.903629
      pz      :     0.018758  p :     0.063689
      px      :     0.017780
      py      :     0.027151
 49 H s       :     0.907641  s :     0.907641
      pz      :     0.015528  p :     0.063618
      px      :     0.015558
      py      :     0.032531


                      *****************************
                      * MAYER POPULATION ANALYSIS *
                      *****************************

  NA   - Mulliken gross atomic population
  ZA   - Total nuclear charge
  QA   - Mulliken gross atomic charge
  VA   - Mayer's total valence
  BVA  - Mayer's bonded valence
  FA   - Mayer's free valence

  ATOM       NA         ZA         QA         VA         BVA        FA
  0 Co    27.0035    27.0000    -0.0035     4.5847     4.5847    -0.0000
  1 C      6.0754     6.0000    -0.0754     4.0292     4.0292     0.0000
  2 C      5.9393     6.0000     0.0607     4.0211     4.0211     0.0000
  3 C      6.1240     6.0000    -0.1240     4.0615     4.0615    -0.0000
  4 C      6.0372     6.0000    -0.0372     3.8040     3.8040    -0.0000
  5 N      7.2220     7.0000    -0.2220     3.1363     3.1363    -0.0000
  6 C      5.9439     6.0000     0.0561     3.9107     3.9107    -0.0000
  7 N      7.0338     7.0000    -0.0338     3.5149     3.5149    -0.0000
  8 H      0.9706     1.0000     0.0294     0.9822     0.9822    -0.0000
  9 H      0.9736     1.0000     0.0264     0.9901     0.9901     0.0000
 10 H      0.9538     1.0000     0.0462     0.9979     0.9979    -0.0000
 11 H      0.9245     1.0000     0.0755     1.0233     1.0233    -0.0000
 12 H      0.8130     1.0000     0.1870     0.9715     0.9715    -0.0000
 13 C      6.0684     6.0000    -0.0684     4.0296     4.0296     0.0000
 14 C      5.9844     6.0000     0.0156     4.0234     4.0234     0.0000
 15 C      6.0165     6.0000    -0.0165     3.9338     3.9338    -0.0000
 16 C      6.0143     6.0000    -0.0143     3.8391     3.8391     0.0000
 17 N      7.0445     7.0000    -0.0445     3.5478     3.5478     0.0000
 18 C      5.8705     6.0000     0.1295     3.9152     3.9152    -0.0000
 19 N      7.2012     7.0000    -0.2012     3.3882     3.3882     0.0000
 20 H      0.9571     1.0000     0.0429     0.9893     0.9893    -0.0000
 21 H      0.9324     1.0000     0.0676     0.9773     0.9773     0.0000
 22 H      0.8001     1.0000     0.1999     0.9693     0.9693     0.0000
 23 H      0.9418     1.0000     0.0582     1.0178     1.0178    -0.0000
 24 H      0.8979     1.0000     0.1021     0.9980     0.9980    -0.0000
 25 O      8.2490     8.0000    -0.2490     2.2955     2.2955    -0.0000
 26 O      8.2330     8.0000    -0.2330     2.3413     2.3413     0.0000
 27 O      8.2641     8.0000    -0.2641     2.2853     2.2853    -0.0000
 28 N      7.3224     7.0000    -0.3224     3.4655     3.4655     0.0000
 29 O      8.2468     8.0000    -0.2468     2.2882     2.2882     0.0000
 30 O      8.2467     8.0000    -0.2467     2.2931     2.2931    -0.0000
 31 O      8.2458     8.0000    -0.2458     2.2892     2.2892    -0.0000
 32 C      5.8394     6.0000     0.1606     4.3439     4.3439     0.0000
 33 C      5.8827     6.0000     0.1173     4.3776     4.3776     0.0000
 34 C      5.8862     6.0000     0.1138     4.3874     4.3874    -0.0000
 35 C      5.8863     6.0000     0.1137     3.6919     3.6919     0.0000
 36 H      0.8963     1.0000     0.1037     1.0031     1.0031     0.0000
 37 H      0.9135     1.0000     0.0865     1.0001     1.0001    -0.0000
 38 C      5.8885     6.0000     0.1115     3.7325     3.7325     0.0000
 39 H      0.9123     1.0000     0.0877     1.0044     1.0044    -0.0000
 40 H      0.8988     1.0000     0.1012     1.0038     1.0038    -0.0000
 41 C      5.9133     6.0000     0.0867     3.7365     3.7365    -0.0000
 42 H      0.8875     1.0000     0.1125     0.9936     0.9936    -0.0000
 43 H      0.9042     1.0000     0.0958     1.0022     1.0022     0.0000
 44 H      0.9494     1.0000     0.0506     0.9839     0.9839     0.0000
 45 H      0.9494     1.0000     0.0506     0.9850     0.9850    -0.0000
 46 H      0.9555     1.0000     0.0445     0.9851     0.9851     0.0000
 47 H      0.9610     1.0000     0.0390     0.9891     0.9891     0.0000
 48 H      0.9582     1.0000     0.0418     0.9830     0.9830     0.0000
 49 H      0.9661     1.0000     0.0339     0.9889     0.9889     0.0000

  Mayer bond orders larger than 0.100000
B(  0-Co,  5-N ) :   0.1715 B(  0-Co, 19-N ) :   0.5900 B(  0-Co, 25-O ) :   0.7944 
B(  0-Co, 26-O ) :   0.8827 B(  0-Co, 27-O ) :   0.7359 B(  0-Co, 28-N ) :   0.7714 
B(  1-C ,  2-C ) :   1.1174 B(  1-C , 47-H ) :   0.9657 B(  1-C , 48-H ) :   0.9611 
B(  1-C , 49-H ) :   0.9670 B(  2-C ,  3-C ) :   1.0701 B(  2-C ,  8-H ) :   0.9193 
B(  2-C ,  9-H ) :   0.9151 B(  3-C ,  4-C ) :   1.4700 B(  3-C ,  5-N ) :   1.3599 
B(  4-C ,  7-N ) :   1.2186 B(  4-C , 10-H ) :   0.9873 B(  5-N ,  6-C ) :   1.4830 
B(  6-C ,  7-N ) :   1.2895 B(  6-C , 11-H ) :   0.9311 B(  7-N , 12-H ) :   0.9091 
B( 13-C , 14-C ) :   1.1199 B( 13-C , 44-H ) :   0.9674 B( 13-C , 45-H ) :   0.9580 
B( 13-C , 46-H ) :   0.9674 B( 14-C , 15-C ) :   1.0527 B( 14-C , 20-H ) :   0.9131 
B( 14-C , 21-H ) :   0.9167 B( 15-C , 16-C ) :   1.4787 B( 15-C , 17-N ) :   1.2254 
B( 16-C , 19-N ) :   1.2309 B( 16-C , 23-H ) :   0.9848 B( 17-N , 18-C ) :   1.3157 
B( 17-N , 22-H ) :   0.9028 B( 18-C , 19-N ) :   1.3970 B( 18-C , 24-H ) :   0.9515 
B( 25-O , 31-O ) :   0.1114 B( 25-O , 33-C ) :   1.2887 B( 26-O , 30-O ) :   0.1098 
B( 26-O , 32-C ) :   1.2631 B( 27-O , 29-O ) :   0.1121 B( 27-O , 34-C ) :   1.2952 
B( 28-N , 35-C ) :   0.8746 B( 28-N , 38-C ) :   0.8751 B( 28-N , 41-C ) :   0.8618 
B( 29-O , 34-C ) :   2.0351 B( 30-O , 32-C ) :   2.0396 B( 31-O , 33-C ) :   2.0462 
B( 32-C , 41-C ) :   0.9389 B( 33-C , 35-C ) :   0.9203 B( 34-C , 38-C ) :   0.9383 
B( 35-C , 36-H ) :   0.9077 B( 35-C , 37-H ) :   0.9236 B( 38-C , 39-H ) :   0.9209 
B( 38-C , 40-H ) :   0.9107 B( 41-C , 42-H ) :   0.9146 B( 41-C , 43-H ) :   0.9189 


-------
TIMINGS
-------

Total SCF time: 0 days 0 hours 2 min 26 sec 

Total time                  ....     146.876 sec
Sum of individual times     ....     145.591 sec  ( 99.1%)

Fock matrix formation       ....     138.678 sec  ( 94.4%)
  Split-RI-J                ....      35.550 sec  ( 25.6% of F)
  XC integration            ....      42.483 sec  ( 30.6% of F)
    Basis function eval.    ....      20.183 sec  ( 47.5% of XC)
    Density eval.           ....      11.758 sec  ( 27.7% of XC)
    XC-Functional eval.     ....       3.383 sec  (  8.0% of XC)
    XC-Potential eval.      ....       5.221 sec  ( 12.3% of XC)
Diagonalization             ....       0.688 sec  (  0.5%)
Density matrix formation    ....       0.092 sec  (  0.1%)
Population analysis         ....       0.046 sec  (  0.0%)
Initial guess               ....       0.081 sec  (  0.1%)
Orbital Transformation      ....       0.000 sec  (  0.0%)
Orbital Orthonormalization  ....       0.067 sec  (  0.0%)
DIIS solution               ....       0.539 sec  (  0.4%)
Grid generation             ....       5.467 sec  (  3.7%)

Maximum memory used throughout the entire SCF-calculation: 290.5 MB


-------------------------------------------------------------------------------
                          DFT DISPERSION CORRECTION                            
                                                                               
                              DFTD3 V3.1  Rev 1                                
                          USING Becke-Johnson damping                          
-------------------------------------------------------------------------------
The BP86 functional is recognized
Active option DFTDOPT                   ...         4   

molecular C6(AA) [au] = 27153.498182 


            DFT-D V3
 parameters
 s6 scaling factor         :     1.0000 
 a1 scaling factor         :     0.3946 
 s8 scaling factor         :     3.2822 
 a2 scaling factor         :     4.8516 
 ad hoc parameters k1-k3   :    16.0000     1.3333    -4.0000 

 Edisp/kcal,au: -66.907501066455  -0.106623878515 
 E6   /kcal   : -25.171484167 
 E8   /kcal   : -41.736016899 
 % E8         :  62.378681365 

-------------------------   ----------------
Dispersion correction           -0.106623879
-------------------------   ----------------


-------------------------   --------------------
FINAL SINGLE POINT ENERGY     -2730.439316981984
-------------------------   --------------------

                                *** OPTIMIZATION RUN DONE ***

                            ***************************************
                            *     ORCA property calculations      *
                            ***************************************

                                    ---------------------
                                    Active property flags
                                    ---------------------
   (+) Dipole Moment


------------------------------------------------------------------------------
                       ORCA ELECTRIC PROPERTIES CALCULATION
------------------------------------------------------------------------------

Dipole Moment Calculation                       ... on
Quadrupole Moment Calculation                   ... off
Polarizability Calculation                      ... off
GBWName                                         ... opt.gbw
Electron density file                           ... opt.scfp
The origin for moment calculation is the CENTER OF MASS  = (-2.967839,  3.408987 -21.428682)

-------------
DIPOLE MOMENT
-------------
                                X             Y             Z
Electronic contribution:    -12.35515       9.61486     -30.24132
Nuclear contribution   :     10.63901     -15.82449      33.56038
                        -----------------------------------------
Total Dipole Moment    :     -1.71614      -6.20963       3.31906
                        -----------------------------------------
Magnitude (a.u.)       :      7.24712
Magnitude (Debye)      :     18.42072



--------------------
Rotational spectrum 
--------------------
 
Rotational constants in cm-1:     0.006511     0.004456     0.003846 
Rotational constants in MHz :   195.208755   133.579686   115.314875 

 Dipole components along the rotational axes: 
x,y,z [a.u.] :    -3.565416    -5.004453     3.842398 
x,y,z [Debye]:    -9.062568   -12.720308     9.766601 

 

Timings for individual modules:

Sum of individual times         ...     8748.028 sec (= 145.800 min)
GTO integral calculation        ...       27.296 sec (=   0.455 min)   0.3 %
SCF iterations                  ...     6830.483 sec (= 113.841 min)  78.1 %
SCF Gradient evaluation         ...     1873.490 sec (=  31.225 min)  21.4 %
Geometry relaxation             ...       16.759 sec (=   0.279 min)   0.2 %
                             ****ORCA TERMINATED NORMALLY****
TOTAL RUN TIME: 0 days 2 hours 26 minutes 0 seconds 240 msec
